LAMMPS (22 Aug 2018)
OMP_NUM_THREADS environment is not set. Defaulting to 1 thread. (../comm.cpp:87)
  using 1 OpenMP thread(s) per MPI task
# This script runs a simulation loop to generate cohesive energy values for a range of lattice distances.

#--------------------------- Simulation variables -----------------------------#
  variable 	   i loop 600
  variable 	   a equal 2+0.005*$i
  variable 	   a equal 2+0.005*1
#------------------------------------------------------------------------------#

#---------------------------- Atomic setup ------------------------------------#
  units 	   metal
  dimension	   3
  boundary	   p p p

  # Create atoms.
  lattice          bcc ${a}
  lattice          bcc 2.005
Lattice spacing in x,y,z = 2.005 2.005 2.005
  region           sim_box block 0 8 0 8 0 8
  create_box       1 sim_box
Created orthogonal box = (0 0 0) to (16.04 16.04 16.04)
  1 by 1 by 1 MPI processor grid
  create_atoms     1 box
Created 1024 atoms
  Time spent = 0 secs

  # Define interatomic potential.
  pair_style       eam
  pair_coeff       * * Ni_u3.eam
Reading potential file Ni_u3.eam with DATE: 2007-06-11
  neigh_modify     delay 0
#------------------------------------------------------------------------------#

#----------------------------- Run simulation ---------------------------------#
  # Compute
  thermo	   1
  thermo_style     custom step pe atoms

  run 		   1
WARNING: No fixes defined, atoms won't move (../verlet.cpp:55)
Neighbor list info ...
  update every 1 steps, delay 0 steps, check yes
  max neighbors/atom: 2000, page size: 100000
  master list distance cutoff = 6.8
  ghost atom cutoff = 6.8
  binsize = 3.4, bins = 5 5 5
  1 neighbor lists, perpetual/occasional/extra = 1 0 0
  (1) pair eam, perpetual
      attributes: half, newton on
      pair build: half/bin/atomonly/newton
      stencil: half/bin/3d/newton
      bin: standard
Per MPI rank memory allocation (min/avg/max) = 3.93 | 3.93 | 3.93 Mbytes
Step PotEng Atoms 
       0    7569.7163     1024 
       1    7569.7163     1024 
Loop time of 0 on 1 procs for 1 steps with 1024 atoms

Performance: inf ns/day, 0.000 hours/ns, inf timesteps/s
0.0% CPU use with 1 MPI tasks x 1 OpenMP threads

MPI task timing breakdown:
Section |  min time  |  avg time  |  max time  |%varavg| %total
---------------------------------------------------------------
Pair    | 0          | 0          | 0          |   0.0 |  0.00
Neigh   | 0          | 0          | 0          |   0.0 |  0.00
Comm    | 0          | 0          | 0          |   0.0 |  0.00
Output  | 0          | 0          | 0          |   0.0 |  0.00
Modify  | 0          | 0          | 0          |   0.0 |  0.00
Other   |            | 0          |            |       |  0.00

Nlocal:    1024 ave 1024 max 1024 min
Histogram: 1 0 0 0 0 0 0 0 0 0
Nghost:    5095 ave 5095 max 5095 min
Histogram: 1 0 0 0 0 0 0 0 0 0
Neighs:    168960 ave 168960 max 168960 min
Histogram: 1 0 0 0 0 0 0 0 0 0

Total # of neighbors = 168960
Ave neighs/atom = 165
Neighbor list builds = 0
Dangerous builds = 0

  variable	   atoms equal "atoms"
  variable	   pe equal "pe"
  variable	   ce equal "v_pe/v_atoms"
  # Output
  print 	  "$a ${ce}" append Ni_FCC.dat
2.005 7.39230104337999
#------------------------------------------------------------------------------#

#----------------------------- Loop procedure ---------------------------------#
  # Looping
  clear
OMP_NUM_THREADS environment is not set. Defaulting to 1 thread. (../comm.cpp:87)
  using 1 OpenMP thread(s) per MPI task
  next 		   i
  jump 		   in.txt
# This script runs a simulation loop to generate cohesive energy values for a range of lattice distances.

#--------------------------- Simulation variables -----------------------------#
  variable 	   i loop 600
  variable 	   a equal 2+0.005*$i
  variable 	   a equal 2+0.005*2
#------------------------------------------------------------------------------#

#---------------------------- Atomic setup ------------------------------------#
  units 	   metal
  dimension	   3
  boundary	   p p p

  # Create atoms.
  lattice          bcc ${a}
  lattice          bcc 2.01
Lattice spacing in x,y,z = 2.01 2.01 2.01
  region           sim_box block 0 8 0 8 0 8
  create_box       1 sim_box
Created orthogonal box = (0 0 0) to (16.08 16.08 16.08)
  1 by 1 by 1 MPI processor grid
  create_atoms     1 box
Created 1024 atoms
  Time spent = 0 secs

  # Define interatomic potential.
  pair_style       eam
  pair_coeff       * * Ni_u3.eam
Reading potential file Ni_u3.eam with DATE: 2007-06-11
  neigh_modify     delay 0
#------------------------------------------------------------------------------#

#----------------------------- Run simulation ---------------------------------#
  # Compute
  thermo	   1
  thermo_style     custom step pe atoms

  run 		   1
WARNING: No fixes defined, atoms won't move (../verlet.cpp:55)
Neighbor list info ...
  update every 1 steps, delay 0 steps, check yes
  max neighbors/atom: 2000, page size: 100000
  master list distance cutoff = 6.8
  ghost atom cutoff = 6.8
  binsize = 3.4, bins = 5 5 5
  1 neighbor lists, perpetual/occasional/extra = 1 0 0
  (1) pair eam, perpetual
      attributes: half, newton on
      pair build: half/bin/atomonly/newton
      stencil: half/bin/3d/newton
      bin: standard
Per MPI rank memory allocation (min/avg/max) = 3.93 | 3.93 | 3.93 Mbytes
Step PotEng Atoms 
       0    7318.4245     1024 
       1    7318.4245     1024 
Loop time of 0.0100012 on 1 procs for 1 steps with 1024 atoms

Performance: 8.639 ns/day, 2.778 hours/ns, 99.988 timesteps/s
0.0% CPU use with 1 MPI tasks x 1 OpenMP threads

MPI task timing breakdown:
Section |  min time  |  avg time  |  max time  |%varavg| %total
---------------------------------------------------------------
Pair    | 0.0075011  | 0.0075011  | 0.0075011  |   0.0 | 75.00
Neigh   | 0          | 0          | 0          |   0.0 |  0.00
Comm    | 0          | 0          | 0          |   0.0 |  0.00
Output  | 0.0025001  | 0.0025001  | 0.0025001  |   0.0 | 25.00
Modify  | 0          | 0          | 0          |   0.0 |  0.00
Other   |            | 0          |            |       |  0.00

Nlocal:    1024 ave 1024 max 1024 min
Histogram: 1 0 0 0 0 0 0 0 0 0
Nghost:    5095 ave 5095 max 5095 min
Histogram: 1 0 0 0 0 0 0 0 0 0
Neighs:    168960 ave 168960 max 168960 min
Histogram: 1 0 0 0 0 0 0 0 0 0

Total # of neighbors = 168960
Ave neighs/atom = 165
Neighbor list builds = 0
Dangerous builds = 0

  variable	   atoms equal "atoms"
  variable	   pe equal "pe"
  variable	   ce equal "v_pe/v_atoms"
  # Output
  print 	  "$a ${ce}" append Ni_FCC.dat
2.01 7.14689892427607
#------------------------------------------------------------------------------#

#----------------------------- Loop procedure ---------------------------------#
  # Looping
  clear
OMP_NUM_THREADS environment is not set. Defaulting to 1 thread. (../comm.cpp:87)
  using 1 OpenMP thread(s) per MPI task
  next 		   i
  jump 		   in.txt
# This script runs a simulation loop to generate cohesive energy values for a range of lattice distances.

#--------------------------- Simulation variables -----------------------------#
  variable 	   i loop 600
  variable 	   a equal 2+0.005*$i
  variable 	   a equal 2+0.005*3
#------------------------------------------------------------------------------#

#---------------------------- Atomic setup ------------------------------------#
  units 	   metal
  dimension	   3
  boundary	   p p p

  # Create atoms.
  lattice          bcc ${a}
  lattice          bcc 2.015
Lattice spacing in x,y,z = 2.015 2.015 2.015
  region           sim_box block 0 8 0 8 0 8
  create_box       1 sim_box
Created orthogonal box = (0 0 0) to (16.12 16.12 16.12)
  1 by 1 by 1 MPI processor grid
  create_atoms     1 box
Created 1024 atoms
  Time spent = 0.00250006 secs

  # Define interatomic potential.
  pair_style       eam
  pair_coeff       * * Ni_u3.eam
Reading potential file Ni_u3.eam with DATE: 2007-06-11
  neigh_modify     delay 0
#------------------------------------------------------------------------------#

#----------------------------- Run simulation ---------------------------------#
  # Compute
  thermo	   1
  thermo_style     custom step pe atoms

  run 		   1
WARNING: No fixes defined, atoms won't move (../verlet.cpp:55)
Neighbor list info ...
  update every 1 steps, delay 0 steps, check yes
  max neighbors/atom: 2000, page size: 100000
  master list distance cutoff = 6.8
  ghost atom cutoff = 6.8
  binsize = 3.4, bins = 5 5 5
  1 neighbor lists, perpetual/occasional/extra = 1 0 0
  (1) pair eam, perpetual
      attributes: half, newton on
      pair build: half/bin/atomonly/newton
      stencil: half/bin/3d/newton
      bin: standard
Per MPI rank memory allocation (min/avg/max) = 3.93 | 3.93 | 3.93 Mbytes
Step PotEng Atoms 
       0    7073.4254     1024 
       1    7073.4254     1024 
Loop time of 0.0156 on 1 procs for 1 steps with 1024 atoms

Performance: 5.538 ns/day, 4.333 hours/ns, 64.103 timesteps/s
100.0% CPU use with 1 MPI tasks x 1 OpenMP threads

MPI task timing breakdown:
Section |  min time  |  avg time  |  max time  |%varavg| %total
---------------------------------------------------------------
Pair    | 0.0156     | 0.0156     | 0.0156     |   0.0 |100.00
Neigh   | 0          | 0          | 0          |   0.0 |  0.00
Comm    | 0          | 0          | 0          |   0.0 |  0.00
Output  | 0          | 0          | 0          |   0.0 |  0.00
Modify  | 0          | 0          | 0          |   0.0 |  0.00
Other   |            | 0          |            |       |  0.00

Nlocal:    1024 ave 1024 max 1024 min
Histogram: 1 0 0 0 0 0 0 0 0 0
Nghost:    5095 ave 5095 max 5095 min
Histogram: 1 0 0 0 0 0 0 0 0 0
Neighs:    168960 ave 168960 max 168960 min
Histogram: 1 0 0 0 0 0 0 0 0 0

Total # of neighbors = 168960
Ave neighs/atom = 165
Neighbor list builds = 0
Dangerous builds = 0

  variable	   atoms equal "atoms"
  variable	   pe equal "pe"
  variable	   ce equal "v_pe/v_atoms"
  # Output
  print 	  "$a ${ce}" append Ni_FCC.dat
2.015 6.90764199482652
#------------------------------------------------------------------------------#

#----------------------------- Loop procedure ---------------------------------#
  # Looping
  clear
OMP_NUM_THREADS environment is not set. Defaulting to 1 thread. (../comm.cpp:87)
  using 1 OpenMP thread(s) per MPI task
  next 		   i
  jump 		   in.txt
# This script runs a simulation loop to generate cohesive energy values for a range of lattice distances.

#--------------------------- Simulation variables -----------------------------#
  variable 	   i loop 600
  variable 	   a equal 2+0.005*$i
  variable 	   a equal 2+0.005*4
#------------------------------------------------------------------------------#

#---------------------------- Atomic setup ------------------------------------#
  units 	   metal
  dimension	   3
  boundary	   p p p

  # Create atoms.
  lattice          bcc ${a}
  lattice          bcc 2.02
Lattice spacing in x,y,z = 2.02 2.02 2.02
  region           sim_box block 0 8 0 8 0 8
  create_box       1 sim_box
Created orthogonal box = (0 0 0) to (16.16 16.16 16.16)
  1 by 1 by 1 MPI processor grid
  create_atoms     1 box
Created 1024 atoms
  Time spent = 0 secs

  # Define interatomic potential.
  pair_style       eam
  pair_coeff       * * Ni_u3.eam
Reading potential file Ni_u3.eam with DATE: 2007-06-11
  neigh_modify     delay 0
#------------------------------------------------------------------------------#

#----------------------------- Run simulation ---------------------------------#
  # Compute
  thermo	   1
  thermo_style     custom step pe atoms

  run 		   1
WARNING: No fixes defined, atoms won't move (../verlet.cpp:55)
Neighbor list info ...
  update every 1 steps, delay 0 steps, check yes
  max neighbors/atom: 2000, page size: 100000
  master list distance cutoff = 6.8
  ghost atom cutoff = 6.8
  binsize = 3.4, bins = 5 5 5
  1 neighbor lists, perpetual/occasional/extra = 1 0 0
  (1) pair eam, perpetual
      attributes: half, newton on
      pair build: half/bin/atomonly/newton
      stencil: half/bin/3d/newton
      bin: standard
Per MPI rank memory allocation (min/avg/max) = 3.93 | 3.93 | 3.93 Mbytes
Step PotEng Atoms 
       0    6834.5961     1024 
       1    6834.5961     1024 
Loop time of 0.0156002 on 1 procs for 1 steps with 1024 atoms

Performance: 5.538 ns/day, 4.333 hours/ns, 64.102 timesteps/s
100.0% CPU use with 1 MPI tasks x 1 OpenMP threads

MPI task timing breakdown:
Section |  min time  |  avg time  |  max time  |%varavg| %total
---------------------------------------------------------------
Pair    | 0.0156     | 0.0156     | 0.0156     |   0.0 |100.00
Neigh   | 0          | 0          | 0          |   0.0 |  0.00
Comm    | 0          | 0          | 0          |   0.0 |  0.00
Output  | 0          | 0          | 0          |   0.0 |  0.00
Modify  | 0          | 0          | 0          |   0.0 |  0.00
Other   |            | 0          |            |       |  0.00

Nlocal:    1024 ave 1024 max 1024 min
Histogram: 1 0 0 0 0 0 0 0 0 0
Nghost:    5095 ave 5095 max 5095 min
Histogram: 1 0 0 0 0 0 0 0 0 0
Neighs:    168960 ave 168960 max 168960 min
Histogram: 1 0 0 0 0 0 0 0 0 0

Total # of neighbors = 168960
Ave neighs/atom = 165
Neighbor list builds = 0
Dangerous builds = 0

  variable	   atoms equal "atoms"
  variable	   pe equal "pe"
  variable	   ce equal "v_pe/v_atoms"
  # Output
  print 	  "$a ${ce}" append Ni_FCC.dat
2.02 6.67441029722927
#------------------------------------------------------------------------------#

#----------------------------- Loop procedure ---------------------------------#
  # Looping
  clear
OMP_NUM_THREADS environment is not set. Defaulting to 1 thread. (../comm.cpp:87)
  using 1 OpenMP thread(s) per MPI task
  next 		   i
  jump 		   in.txt
# This script runs a simulation loop to generate cohesive energy values for a range of lattice distances.

#--------------------------- Simulation variables -----------------------------#
  variable 	   i loop 600
  variable 	   a equal 2+0.005*$i
  variable 	   a equal 2+0.005*5
#------------------------------------------------------------------------------#

#---------------------------- Atomic setup ------------------------------------#
  units 	   metal
  dimension	   3
  boundary	   p p p

  # Create atoms.
  lattice          bcc ${a}
  lattice          bcc 2.025
Lattice spacing in x,y,z = 2.025 2.025 2.025
  region           sim_box block 0 8 0 8 0 8
  create_box       1 sim_box
Created orthogonal box = (0 0 0) to (16.2 16.2 16.2)
  1 by 1 by 1 MPI processor grid
  create_atoms     1 box
Created 1024 atoms
  Time spent = 0 secs

  # Define interatomic potential.
  pair_style       eam
  pair_coeff       * * Ni_u3.eam
Reading potential file Ni_u3.eam with DATE: 2007-06-11
  neigh_modify     delay 0
#------------------------------------------------------------------------------#

#----------------------------- Run simulation ---------------------------------#
  # Compute
  thermo	   1
  thermo_style     custom step pe atoms

  run 		   1
WARNING: No fixes defined, atoms won't move (../verlet.cpp:55)
Neighbor list info ...
  update every 1 steps, delay 0 steps, check yes
  max neighbors/atom: 2000, page size: 100000
  master list distance cutoff = 6.8
  ghost atom cutoff = 6.8
  binsize = 3.4, bins = 5 5 5
  1 neighbor lists, perpetual/occasional/extra = 1 0 0
  (1) pair eam, perpetual
      attributes: half, newton on
      pair build: half/bin/atomonly/newton
      stencil: half/bin/3d/newton
      bin: standard
Per MPI rank memory allocation (min/avg/max) = 3.93 | 3.93 | 3.93 Mbytes
Step PotEng Atoms 
       0     6601.816     1024 
       1     6601.816     1024 
Loop time of 0.0156002 on 1 procs for 1 steps with 1024 atoms

Performance: 5.538 ns/day, 4.333 hours/ns, 64.102 timesteps/s
0.0% CPU use with 1 MPI tasks x 1 OpenMP threads

MPI task timing breakdown:
Section |  min time  |  avg time  |  max time  |%varavg| %total
---------------------------------------------------------------
Pair    | 0          | 0          | 0          |   0.0 |  0.00
Neigh   | 0          | 0          | 0          |   0.0 |  0.00
Comm    | 0          | 0          | 0          |   0.0 |  0.00
Output  | 0.0156     | 0.0156     | 0.0156     |   0.0 |100.00
Modify  | 0          | 0          | 0          |   0.0 |  0.00
Other   |            | 0          |            |       |  0.00

Nlocal:    1024 ave 1024 max 1024 min
Histogram: 1 0 0 0 0 0 0 0 0 0
Nghost:    5095 ave 5095 max 5095 min
Histogram: 1 0 0 0 0 0 0 0 0 0
Neighs:    168960 ave 168960 max 168960 min
Histogram: 1 0 0 0 0 0 0 0 0 0

Total # of neighbors = 168960
Ave neighs/atom = 165
Neighbor list builds = 0
Dangerous builds = 0

  variable	   atoms equal "atoms"
  variable	   pe equal "pe"
  variable	   ce equal "v_pe/v_atoms"
  # Output
  print 	  "$a ${ce}" append Ni_FCC.dat
2.025 6.44708596085984
#------------------------------------------------------------------------------#

#----------------------------- Loop procedure ---------------------------------#
  # Looping
  clear
OMP_NUM_THREADS environment is not set. Defaulting to 1 thread. (../comm.cpp:87)
  using 1 OpenMP thread(s) per MPI task
  next 		   i
  jump 		   in.txt
# This script runs a simulation loop to generate cohesive energy values for a range of lattice distances.

#--------------------------- Simulation variables -----------------------------#
  variable 	   i loop 600
  variable 	   a equal 2+0.005*$i
  variable 	   a equal 2+0.005*6
#------------------------------------------------------------------------------#

#---------------------------- Atomic setup ------------------------------------#
  units 	   metal
  dimension	   3
  boundary	   p p p

  # Create atoms.
  lattice          bcc ${a}
  lattice          bcc 2.03
Lattice spacing in x,y,z = 2.03 2.03 2.03
  region           sim_box block 0 8 0 8 0 8
  create_box       1 sim_box
Created orthogonal box = (0 0 0) to (16.24 16.24 16.24)
  1 by 1 by 1 MPI processor grid
  create_atoms     1 box
Created 1024 atoms
  Time spent = 0 secs

  # Define interatomic potential.
  pair_style       eam
  pair_coeff       * * Ni_u3.eam
Reading potential file Ni_u3.eam with DATE: 2007-06-11
  neigh_modify     delay 0
#------------------------------------------------------------------------------#

#----------------------------- Run simulation ---------------------------------#
  # Compute
  thermo	   1
  thermo_style     custom step pe atoms

  run 		   1
WARNING: No fixes defined, atoms won't move (../verlet.cpp:55)
Neighbor list info ...
  update every 1 steps, delay 0 steps, check yes
  max neighbors/atom: 2000, page size: 100000
  master list distance cutoff = 6.8
  ghost atom cutoff = 6.8
  binsize = 3.4, bins = 5 5 5
  1 neighbor lists, perpetual/occasional/extra = 1 0 0
  (1) pair eam, perpetual
      attributes: half, newton on
      pair build: half/bin/atomonly/newton
      stencil: half/bin/3d/newton
      bin: standard
Per MPI rank memory allocation (min/avg/max) = 3.93 | 3.93 | 3.93 Mbytes
Step PotEng Atoms 
       0    6374.9663     1024 
       1    6374.9663     1024 
Loop time of 0.00749993 on 1 procs for 1 steps with 1024 atoms

Performance: 11.520 ns/day, 2.083 hours/ns, 133.335 timesteps/s
208.0% CPU use with 1 MPI tasks x 1 OpenMP threads

MPI task timing breakdown:
Section |  min time  |  avg time  |  max time  |%varavg| %total
---------------------------------------------------------------
Pair    | 0.0074999  | 0.0074999  | 0.0074999  |   0.0 |100.00
Neigh   | 0          | 0          | 0          |   0.0 |  0.00
Comm    | 0          | 0          | 0          |   0.0 |  0.00
Output  | 0          | 0          | 0          |   0.0 |  0.00
Modify  | 0          | 0          | 0          |   0.0 |  0.00
Other   |            | 0          |            |       |  0.00

Nlocal:    1024 ave 1024 max 1024 min
Histogram: 1 0 0 0 0 0 0 0 0 0
Nghost:    5095 ave 5095 max 5095 min
Histogram: 1 0 0 0 0 0 0 0 0 0
Neighs:    168960 ave 168960 max 168960 min
Histogram: 1 0 0 0 0 0 0 0 0 0

Total # of neighbors = 168960
Ave neighs/atom = 165
Neighbor list builds = 0
Dangerous builds = 0

  variable	   atoms equal "atoms"
  variable	   pe equal "pe"
  variable	   ce equal "v_pe/v_atoms"
  # Output
  print 	  "$a ${ce}" append Ni_FCC.dat
2.03 6.22555307448854
#------------------------------------------------------------------------------#

#----------------------------- Loop procedure ---------------------------------#
  # Looping
  clear
OMP_NUM_THREADS environment is not set. Defaulting to 1 thread. (../comm.cpp:87)
  using 1 OpenMP thread(s) per MPI task
  next 		   i
  jump 		   in.txt
# This script runs a simulation loop to generate cohesive energy values for a range of lattice distances.

#--------------------------- Simulation variables -----------------------------#
  variable 	   i loop 600
  variable 	   a equal 2+0.005*$i
  variable 	   a equal 2+0.005*7
#------------------------------------------------------------------------------#

#---------------------------- Atomic setup ------------------------------------#
  units 	   metal
  dimension	   3
  boundary	   p p p

  # Create atoms.
  lattice          bcc ${a}
  lattice          bcc 2.035
Lattice spacing in x,y,z = 2.035 2.035 2.035
  region           sim_box block 0 8 0 8 0 8
  create_box       1 sim_box
Created orthogonal box = (0 0 0) to (16.28 16.28 16.28)
  1 by 1 by 1 MPI processor grid
  create_atoms     1 box
Created 1024 atoms
  Time spent = 0.00250006 secs

  # Define interatomic potential.
  pair_style       eam
  pair_coeff       * * Ni_u3.eam
Reading potential file Ni_u3.eam with DATE: 2007-06-11
  neigh_modify     delay 0
#------------------------------------------------------------------------------#

#----------------------------- Run simulation ---------------------------------#
  # Compute
  thermo	   1
  thermo_style     custom step pe atoms

  run 		   1
WARNING: No fixes defined, atoms won't move (../verlet.cpp:55)
Neighbor list info ...
  update every 1 steps, delay 0 steps, check yes
  max neighbors/atom: 2000, page size: 100000
  master list distance cutoff = 6.8
  ghost atom cutoff = 6.8
  binsize = 3.4, bins = 5 5 5
  1 neighbor lists, perpetual/occasional/extra = 1 0 0
  (1) pair eam, perpetual
      attributes: half, newton on
      pair build: half/bin/atomonly/newton
      stencil: half/bin/3d/newton
      bin: standard
Per MPI rank memory allocation (min/avg/max) = 3.93 | 3.93 | 3.93 Mbytes
Step PotEng Atoms 
       0    6153.9305     1024 
       1    6153.9305     1024 
Loop time of 0.00999999 on 1 procs for 1 steps with 1024 atoms

Performance: 8.640 ns/day, 2.778 hours/ns, 100.000 timesteps/s
0.0% CPU use with 1 MPI tasks x 1 OpenMP threads

MPI task timing breakdown:
Section |  min time  |  avg time  |  max time  |%varavg| %total
---------------------------------------------------------------
Pair    | 0.0074999  | 0.0074999  | 0.0074999  |   0.0 | 75.00
Neigh   | 0          | 0          | 0          |   0.0 |  0.00
Comm    | 0          | 0          | 0          |   0.0 |  0.00
Output  | 0.0025001  | 0.0025001  | 0.0025001  |   0.0 | 25.00
Modify  | 0          | 0          | 0          |   0.0 |  0.00
Other   |            | 0          |            |       |  0.00

Nlocal:    1024 ave 1024 max 1024 min
Histogram: 1 0 0 0 0 0 0 0 0 0
Nghost:    5095 ave 5095 max 5095 min
Histogram: 1 0 0 0 0 0 0 0 0 0
Neighs:    168960 ave 168960 max 168960 min
Histogram: 1 0 0 0 0 0 0 0 0 0

Total # of neighbors = 168960
Ave neighs/atom = 165
Neighbor list builds = 0
Dangerous builds = 0

  variable	   atoms equal "atoms"
  variable	   pe equal "pe"
  variable	   ce equal "v_pe/v_atoms"
  # Output
  print 	  "$a ${ce}" append Ni_FCC.dat
2.035 6.00969779393603
#------------------------------------------------------------------------------#

#----------------------------- Loop procedure ---------------------------------#
  # Looping
  clear
OMP_NUM_THREADS environment is not set. Defaulting to 1 thread. (../comm.cpp:87)
  using 1 OpenMP thread(s) per MPI task
  next 		   i
  jump 		   in.txt
# This script runs a simulation loop to generate cohesive energy values for a range of lattice distances.

#--------------------------- Simulation variables -----------------------------#
  variable 	   i loop 600
  variable 	   a equal 2+0.005*$i
  variable 	   a equal 2+0.005*8
#------------------------------------------------------------------------------#

#---------------------------- Atomic setup ------------------------------------#
  units 	   metal
  dimension	   3
  boundary	   p p p

  # Create atoms.
  lattice          bcc ${a}
  lattice          bcc 2.04
Lattice spacing in x,y,z = 2.04 2.04 2.04
  region           sim_box block 0 8 0 8 0 8
  create_box       1 sim_box
Created orthogonal box = (0 0 0) to (16.32 16.32 16.32)
  1 by 1 by 1 MPI processor grid
  create_atoms     1 box
Created 1024 atoms
  Time spent = 0 secs

  # Define interatomic potential.
  pair_style       eam
  pair_coeff       * * Ni_u3.eam
Reading potential file Ni_u3.eam with DATE: 2007-06-11
  neigh_modify     delay 0
#------------------------------------------------------------------------------#

#----------------------------- Run simulation ---------------------------------#
  # Compute
  thermo	   1
  thermo_style     custom step pe atoms

  run 		   1
WARNING: No fixes defined, atoms won't move (../verlet.cpp:55)
Neighbor list info ...
  update every 1 steps, delay 0 steps, check yes
  max neighbors/atom: 2000, page size: 100000
  master list distance cutoff = 6.8
  ghost atom cutoff = 6.8
  binsize = 3.4, bins = 5 5 5
  1 neighbor lists, perpetual/occasional/extra = 1 0 0
  (1) pair eam, perpetual
      attributes: half, newton on
      pair build: half/bin/atomonly/newton
      stencil: half/bin/3d/newton
      bin: standard
Per MPI rank memory allocation (min/avg/max) = 3.93 | 3.93 | 3.93 Mbytes
Step PotEng Atoms 
       0     5938.594     1024 
       1     5938.594     1024 
Loop time of 0.00749993 on 1 procs for 1 steps with 1024 atoms

Performance: 11.520 ns/day, 2.083 hours/ns, 133.335 timesteps/s
0.0% CPU use with 1 MPI tasks x 1 OpenMP threads

MPI task timing breakdown:
Section |  min time  |  avg time  |  max time  |%varavg| %total
---------------------------------------------------------------
Pair    | 0.0074999  | 0.0074999  | 0.0074999  |   0.0 |100.00
Neigh   | 0          | 0          | 0          |   0.0 |  0.00
Comm    | 0          | 0          | 0          |   0.0 |  0.00
Output  | 0          | 0          | 0          |   0.0 |  0.00
Modify  | 0          | 0          | 0          |   0.0 |  0.00
Other   |            | 0          |            |       |  0.00

Nlocal:    1024 ave 1024 max 1024 min
Histogram: 1 0 0 0 0 0 0 0 0 0
Nghost:    5095 ave 5095 max 5095 min
Histogram: 1 0 0 0 0 0 0 0 0 0
Neighs:    168960 ave 168960 max 168960 min
Histogram: 1 0 0 0 0 0 0 0 0 0

Total # of neighbors = 168960
Ave neighs/atom = 165
Neighbor list builds = 0
Dangerous builds = 0

  variable	   atoms equal "atoms"
  variable	   pe equal "pe"
  variable	   ce equal "v_pe/v_atoms"
  # Output
  print 	  "$a ${ce}" append Ni_FCC.dat
2.04 5.79940815664926
#------------------------------------------------------------------------------#

#----------------------------- Loop procedure ---------------------------------#
  # Looping
  clear
OMP_NUM_THREADS environment is not set. Defaulting to 1 thread. (../comm.cpp:87)
  using 1 OpenMP thread(s) per MPI task
  next 		   i
  jump 		   in.txt
# This script runs a simulation loop to generate cohesive energy values for a range of lattice distances.

#--------------------------- Simulation variables -----------------------------#
  variable 	   i loop 600
  variable 	   a equal 2+0.005*$i
  variable 	   a equal 2+0.005*9
#------------------------------------------------------------------------------#

#---------------------------- Atomic setup ------------------------------------#
  units 	   metal
  dimension	   3
  boundary	   p p p

  # Create atoms.
  lattice          bcc ${a}
  lattice          bcc 2.045
Lattice spacing in x,y,z = 2.045 2.045 2.045
  region           sim_box block 0 8 0 8 0 8
  create_box       1 sim_box
Created orthogonal box = (0 0 0) to (16.36 16.36 16.36)
  1 by 1 by 1 MPI processor grid
  create_atoms     1 box
Created 1024 atoms
  Time spent = 0 secs

  # Define interatomic potential.
  pair_style       eam
  pair_coeff       * * Ni_u3.eam
Reading potential file Ni_u3.eam with DATE: 2007-06-11
  neigh_modify     delay 0
#------------------------------------------------------------------------------#

#----------------------------- Run simulation ---------------------------------#
  # Compute
  thermo	   1
  thermo_style     custom step pe atoms

  run 		   1
WARNING: No fixes defined, atoms won't move (../verlet.cpp:55)
Neighbor list info ...
  update every 1 steps, delay 0 steps, check yes
  max neighbors/atom: 2000, page size: 100000
  master list distance cutoff = 6.8
  ghost atom cutoff = 6.8
  binsize = 3.4, bins = 5 5 5
  1 neighbor lists, perpetual/occasional/extra = 1 0 0
  (1) pair eam, perpetual
      attributes: half, newton on
      pair build: half/bin/atomonly/newton
      stencil: half/bin/3d/newton
      bin: standard
Per MPI rank memory allocation (min/avg/max) = 3.93 | 3.93 | 3.93 Mbytes
Step PotEng Atoms 
       0     5728.844     1024 
       1     5728.844     1024 
Loop time of 0.00750017 on 1 procs for 1 steps with 1024 atoms

Performance: 11.520 ns/day, 2.083 hours/ns, 133.330 timesteps/s
208.0% CPU use with 1 MPI tasks x 1 OpenMP threads

MPI task timing breakdown:
Section |  min time  |  avg time  |  max time  |%varavg| %total
---------------------------------------------------------------
Pair    | 0.0050001  | 0.0050001  | 0.0050001  |   0.0 | 66.67
Neigh   | 0          | 0          | 0          |   0.0 |  0.00
Comm    | 0          | 0          | 0          |   0.0 |  0.00
Output  | 0.0025001  | 0.0025001  | 0.0025001  |   0.0 | 33.33
Modify  | 0          | 0          | 0          |   0.0 |  0.00
Other   |            | 0          |            |       |  0.00

Nlocal:    1024 ave 1024 max 1024 min
Histogram: 1 0 0 0 0 0 0 0 0 0
Nghost:    5095 ave 5095 max 5095 min
Histogram: 1 0 0 0 0 0 0 0 0 0
Neighs:    168960 ave 168960 max 168960 min
Histogram: 1 0 0 0 0 0 0 0 0 0

Total # of neighbors = 168960
Ave neighs/atom = 165
Neighbor list builds = 0
Dangerous builds = 0

  variable	   atoms equal "atoms"
  variable	   pe equal "pe"
  variable	   ce equal "v_pe/v_atoms"
  # Output
  print 	  "$a ${ce}" append Ni_FCC.dat
2.045 5.59457421166923
#------------------------------------------------------------------------------#

#----------------------------- Loop procedure ---------------------------------#
  # Looping
  clear
OMP_NUM_THREADS environment is not set. Defaulting to 1 thread. (../comm.cpp:87)
  using 1 OpenMP thread(s) per MPI task
  next 		   i
  jump 		   in.txt
# This script runs a simulation loop to generate cohesive energy values for a range of lattice distances.

#--------------------------- Simulation variables -----------------------------#
  variable 	   i loop 600
  variable 	   a equal 2+0.005*$i
  variable 	   a equal 2+0.005*10
#------------------------------------------------------------------------------#

#---------------------------- Atomic setup ------------------------------------#
  units 	   metal
  dimension	   3
  boundary	   p p p

  # Create atoms.
  lattice          bcc ${a}
  lattice          bcc 2.05
Lattice spacing in x,y,z = 2.05 2.05 2.05
  region           sim_box block 0 8 0 8 0 8
  create_box       1 sim_box
Created orthogonal box = (0 0 0) to (16.4 16.4 16.4)
  1 by 1 by 1 MPI processor grid
  create_atoms     1 box
Created 1024 atoms
  Time spent = 0 secs

  # Define interatomic potential.
  pair_style       eam
  pair_coeff       * * Ni_u3.eam
Reading potential file Ni_u3.eam with DATE: 2007-06-11
  neigh_modify     delay 0
#------------------------------------------------------------------------------#

#----------------------------- Run simulation ---------------------------------#
  # Compute
  thermo	   1
  thermo_style     custom step pe atoms

  run 		   1
WARNING: No fixes defined, atoms won't move (../verlet.cpp:55)
Neighbor list info ...
  update every 1 steps, delay 0 steps, check yes
  max neighbors/atom: 2000, page size: 100000
  master list distance cutoff = 6.8
  ghost atom cutoff = 6.8
  binsize = 3.4, bins = 5 5 5
  1 neighbor lists, perpetual/occasional/extra = 1 0 0
  (1) pair eam, perpetual
      attributes: half, newton on
      pair build: half/bin/atomonly/newton
      stencil: half/bin/3d/newton
      bin: standard
Per MPI rank memory allocation (min/avg/max) = 3.93 | 3.93 | 3.93 Mbytes
Step PotEng Atoms 
       0      5524.57     1024 
       1      5524.57     1024 
Loop time of 0.00500083 on 1 procs for 1 steps with 1024 atoms

Performance: 17.277 ns/day, 1.389 hours/ns, 199.967 timesteps/s
312.0% CPU use with 1 MPI tasks x 1 OpenMP threads

MPI task timing breakdown:
Section |  min time  |  avg time  |  max time  |%varavg| %total
---------------------------------------------------------------
Pair    | 0.0050008  | 0.0050008  | 0.0050008  |   0.0 |100.00
Neigh   | 0          | 0          | 0          |   0.0 |  0.00
Comm    | 0          | 0          | 0          |   0.0 |  0.00
Output  | 0          | 0          | 0          |   0.0 |  0.00
Modify  | 0          | 0          | 0          |   0.0 |  0.00
Other   |            | 0          |            |       |  0.00

Nlocal:    1024 ave 1024 max 1024 min
Histogram: 1 0 0 0 0 0 0 0 0 0
Nghost:    5095 ave 5095 max 5095 min
Histogram: 1 0 0 0 0 0 0 0 0 0
Neighs:    168960 ave 168960 max 168960 min
Histogram: 1 0 0 0 0 0 0 0 0 0

Total # of neighbors = 168960
Ave neighs/atom = 165
Neighbor list builds = 0
Dangerous builds = 0

  variable	   atoms equal "atoms"
  variable	   pe equal "pe"
  variable	   ce equal "v_pe/v_atoms"
  # Output
  print 	  "$a ${ce}" append Ni_FCC.dat
2.05 5.39508784525461
#------------------------------------------------------------------------------#

#----------------------------- Loop procedure ---------------------------------#
  # Looping
  clear
OMP_NUM_THREADS environment is not set. Defaulting to 1 thread. (../comm.cpp:87)
  using 1 OpenMP thread(s) per MPI task
  next 		   i
  jump 		   in.txt
# This script runs a simulation loop to generate cohesive energy values for a range of lattice distances.

#--------------------------- Simulation variables -----------------------------#
  variable 	   i loop 600
  variable 	   a equal 2+0.005*$i
  variable 	   a equal 2+0.005*11
#------------------------------------------------------------------------------#

#---------------------------- Atomic setup ------------------------------------#
  units 	   metal
  dimension	   3
  boundary	   p p p

  # Create atoms.
  lattice          bcc ${a}
  lattice          bcc 2.055
Lattice spacing in x,y,z = 2.055 2.055 2.055
  region           sim_box block 0 8 0 8 0 8
  create_box       1 sim_box
Created orthogonal box = (0 0 0) to (16.44 16.44 16.44)
  1 by 1 by 1 MPI processor grid
  create_atoms     1 box
Created 1024 atoms
  Time spent = 0 secs

  # Define interatomic potential.
  pair_style       eam
  pair_coeff       * * Ni_u3.eam
Reading potential file Ni_u3.eam with DATE: 2007-06-11
  neigh_modify     delay 0
#------------------------------------------------------------------------------#

#----------------------------- Run simulation ---------------------------------#
  # Compute
  thermo	   1
  thermo_style     custom step pe atoms

  run 		   1
WARNING: No fixes defined, atoms won't move (../verlet.cpp:55)
Neighbor list info ...
  update every 1 steps, delay 0 steps, check yes
  max neighbors/atom: 2000, page size: 100000
  master list distance cutoff = 6.8
  ghost atom cutoff = 6.8
  binsize = 3.4, bins = 5 5 5
  1 neighbor lists, perpetual/occasional/extra = 1 0 0
  (1) pair eam, perpetual
      attributes: half, newton on
      pair build: half/bin/atomonly/newton
      stencil: half/bin/3d/newton
      bin: standard
Per MPI rank memory allocation (min/avg/max) = 3.93 | 3.93 | 3.93 Mbytes
Step PotEng Atoms 
       0    5325.6631     1024 
       1    5325.6631     1024 
Loop time of 0 on 1 procs for 1 steps with 1024 atoms

Performance: inf ns/day, 0.000 hours/ns, inf timesteps/s
0.0% CPU use with 1 MPI tasks x 1 OpenMP threads

MPI task timing breakdown:
Section |  min time  |  avg time  |  max time  |%varavg| %total
---------------------------------------------------------------
Pair    | 0          | 0          | 0          |   0.0 |  0.00
Neigh   | 0          | 0          | 0          |   0.0 |  0.00
Comm    | 0          | 0          | 0          |   0.0 |  0.00
Output  | 0          | 0          | 0          |   0.0 |  0.00
Modify  | 0          | 0          | 0          |   0.0 |  0.00
Other   |            | 0          |            |       |  0.00

Nlocal:    1024 ave 1024 max 1024 min
Histogram: 1 0 0 0 0 0 0 0 0 0
Nghost:    5095 ave 5095 max 5095 min
Histogram: 1 0 0 0 0 0 0 0 0 0
Neighs:    156672 ave 156672 max 156672 min
Histogram: 1 0 0 0 0 0 0 0 0 0

Total # of neighbors = 156672
Ave neighs/atom = 153
Neighbor list builds = 0
Dangerous builds = 0

  variable	   atoms equal "atoms"
  variable	   pe equal "pe"
  variable	   ce equal "v_pe/v_atoms"
  # Output
  print 	  "$a ${ce}" append Ni_FCC.dat
2.055 5.20084287226757
#------------------------------------------------------------------------------#

#----------------------------- Loop procedure ---------------------------------#
  # Looping
  clear
OMP_NUM_THREADS environment is not set. Defaulting to 1 thread. (../comm.cpp:87)
  using 1 OpenMP thread(s) per MPI task
  next 		   i
  jump 		   in.txt
# This script runs a simulation loop to generate cohesive energy values for a range of lattice distances.

#--------------------------- Simulation variables -----------------------------#
  variable 	   i loop 600
  variable 	   a equal 2+0.005*$i
  variable 	   a equal 2+0.005*12
#------------------------------------------------------------------------------#

#---------------------------- Atomic setup ------------------------------------#
  units 	   metal
  dimension	   3
  boundary	   p p p

  # Create atoms.
  lattice          bcc ${a}
  lattice          bcc 2.06
Lattice spacing in x,y,z = 2.06 2.06 2.06
  region           sim_box block 0 8 0 8 0 8
  create_box       1 sim_box
Created orthogonal box = (0 0 0) to (16.48 16.48 16.48)
  1 by 1 by 1 MPI processor grid
  create_atoms     1 box
Created 1024 atoms
  Time spent = 0 secs

  # Define interatomic potential.
  pair_style       eam
  pair_coeff       * * Ni_u3.eam
Reading potential file Ni_u3.eam with DATE: 2007-06-11
  neigh_modify     delay 0
#------------------------------------------------------------------------------#

#----------------------------- Run simulation ---------------------------------#
  # Compute
  thermo	   1
  thermo_style     custom step pe atoms

  run 		   1
WARNING: No fixes defined, atoms won't move (../verlet.cpp:55)
Neighbor list info ...
  update every 1 steps, delay 0 steps, check yes
  max neighbors/atom: 2000, page size: 100000
  master list distance cutoff = 6.8
  ghost atom cutoff = 6.8
  binsize = 3.4, bins = 5 5 5
  1 neighbor lists, perpetual/occasional/extra = 1 0 0
  (1) pair eam, perpetual
      attributes: half, newton on
      pair build: half/bin/atomonly/newton
      stencil: half/bin/3d/newton
      bin: standard
Per MPI rank memory allocation (min/avg/max) = 3.93 | 3.93 | 3.93 Mbytes
Step PotEng Atoms 
       0    5132.0166     1024 
       1    5132.0166     1024 
Loop time of 0.0156 on 1 procs for 1 steps with 1024 atoms

Performance: 5.538 ns/day, 4.333 hours/ns, 64.103 timesteps/s
100.0% CPU use with 1 MPI tasks x 1 OpenMP threads

MPI task timing breakdown:
Section |  min time  |  avg time  |  max time  |%varavg| %total
---------------------------------------------------------------
Pair    | 0.0156     | 0.0156     | 0.0156     |   0.0 |100.00
Neigh   | 0          | 0          | 0          |   0.0 |  0.00
Comm    | 0          | 0          | 0          |   0.0 |  0.00
Output  | 0          | 0          | 0          |   0.0 |  0.00
Modify  | 0          | 0          | 0          |   0.0 |  0.00
Other   |            | 0          |            |       |  0.00

Nlocal:    1024 ave 1024 max 1024 min
Histogram: 1 0 0 0 0 0 0 0 0 0
Nghost:    5095 ave 5095 max 5095 min
Histogram: 1 0 0 0 0 0 0 0 0 0
Neighs:    156672 ave 156672 max 156672 min
Histogram: 1 0 0 0 0 0 0 0 0 0

Total # of neighbors = 156672
Ave neighs/atom = 153
Neighbor list builds = 0
Dangerous builds = 0

  variable	   atoms equal "atoms"
  variable	   pe equal "pe"
  variable	   ce equal "v_pe/v_atoms"
  # Output
  print 	  "$a ${ce}" append Ni_FCC.dat
2.06 5.01173492500323
#------------------------------------------------------------------------------#

#----------------------------- Loop procedure ---------------------------------#
  # Looping
  clear
OMP_NUM_THREADS environment is not set. Defaulting to 1 thread. (../comm.cpp:87)
  using 1 OpenMP thread(s) per MPI task
  next 		   i
  jump 		   in.txt
# This script runs a simulation loop to generate cohesive energy values for a range of lattice distances.

#--------------------------- Simulation variables -----------------------------#
  variable 	   i loop 600
  variable 	   a equal 2+0.005*$i
  variable 	   a equal 2+0.005*13
#------------------------------------------------------------------------------#

#---------------------------- Atomic setup ------------------------------------#
  units 	   metal
  dimension	   3
  boundary	   p p p

  # Create atoms.
  lattice          bcc ${a}
  lattice          bcc 2.065
Lattice spacing in x,y,z = 2.065 2.065 2.065
  region           sim_box block 0 8 0 8 0 8
  create_box       1 sim_box
Created orthogonal box = (0 0 0) to (16.52 16.52 16.52)
  1 by 1 by 1 MPI processor grid
  create_atoms     1 box
Created 1024 atoms
  Time spent = 0 secs

  # Define interatomic potential.
  pair_style       eam
  pair_coeff       * * Ni_u3.eam
Reading potential file Ni_u3.eam with DATE: 2007-06-11
  neigh_modify     delay 0
#------------------------------------------------------------------------------#

#----------------------------- Run simulation ---------------------------------#
  # Compute
  thermo	   1
  thermo_style     custom step pe atoms

  run 		   1
WARNING: No fixes defined, atoms won't move (../verlet.cpp:55)
Neighbor list info ...
  update every 1 steps, delay 0 steps, check yes
  max neighbors/atom: 2000, page size: 100000
  master list distance cutoff = 6.8
  ghost atom cutoff = 6.8
  binsize = 3.4, bins = 5 5 5
  1 neighbor lists, perpetual/occasional/extra = 1 0 0
  (1) pair eam, perpetual
      attributes: half, newton on
      pair build: half/bin/atomonly/newton
      stencil: half/bin/3d/newton
      bin: standard
Per MPI rank memory allocation (min/avg/max) = 3.93 | 3.93 | 3.93 Mbytes
Step PotEng Atoms 
       0    4943.5253     1024 
       1    4943.5253     1024 
Loop time of 0.0156 on 1 procs for 1 steps with 1024 atoms

Performance: 5.538 ns/day, 4.333 hours/ns, 64.103 timesteps/s
100.0% CPU use with 1 MPI tasks x 1 OpenMP threads

MPI task timing breakdown:
Section |  min time  |  avg time  |  max time  |%varavg| %total
---------------------------------------------------------------
Pair    | 0.0156     | 0.0156     | 0.0156     |   0.0 |100.00
Neigh   | 0          | 0          | 0          |   0.0 |  0.00
Comm    | 0          | 0          | 0          |   0.0 |  0.00
Output  | 0          | 0          | 0          |   0.0 |  0.00
Modify  | 0          | 0          | 0          |   0.0 |  0.00
Other   |            | 0          |            |       |  0.00

Nlocal:    1024 ave 1024 max 1024 min
Histogram: 1 0 0 0 0 0 0 0 0 0
Nghost:    5095 ave 5095 max 5095 min
Histogram: 1 0 0 0 0 0 0 0 0 0
Neighs:    156672 ave 156672 max 156672 min
Histogram: 1 0 0 0 0 0 0 0 0 0

Total # of neighbors = 156672
Ave neighs/atom = 153
Neighbor list builds = 0
Dangerous builds = 0

  variable	   atoms equal "atoms"
  variable	   pe equal "pe"
  variable	   ce equal "v_pe/v_atoms"
  # Output
  print 	  "$a ${ce}" append Ni_FCC.dat
2.065 4.82766147118296
#------------------------------------------------------------------------------#

#----------------------------- Loop procedure ---------------------------------#
  # Looping
  clear
OMP_NUM_THREADS environment is not set. Defaulting to 1 thread. (../comm.cpp:87)
  using 1 OpenMP thread(s) per MPI task
  next 		   i
  jump 		   in.txt
# This script runs a simulation loop to generate cohesive energy values for a range of lattice distances.

#--------------------------- Simulation variables -----------------------------#
  variable 	   i loop 600
  variable 	   a equal 2+0.005*$i
  variable 	   a equal 2+0.005*14
#------------------------------------------------------------------------------#

#---------------------------- Atomic setup ------------------------------------#
  units 	   metal
  dimension	   3
  boundary	   p p p

  # Create atoms.
  lattice          bcc ${a}
  lattice          bcc 2.07
Lattice spacing in x,y,z = 2.07 2.07 2.07
  region           sim_box block 0 8 0 8 0 8
  create_box       1 sim_box
Created orthogonal box = (0 0 0) to (16.56 16.56 16.56)
  1 by 1 by 1 MPI processor grid
  create_atoms     1 box
Created 1024 atoms
  Time spent = 0 secs

  # Define interatomic potential.
  pair_style       eam
  pair_coeff       * * Ni_u3.eam
Reading potential file Ni_u3.eam with DATE: 2007-06-11
  neigh_modify     delay 0
#------------------------------------------------------------------------------#

#----------------------------- Run simulation ---------------------------------#
  # Compute
  thermo	   1
  thermo_style     custom step pe atoms

  run 		   1
WARNING: No fixes defined, atoms won't move (../verlet.cpp:55)
Neighbor list info ...
  update every 1 steps, delay 0 steps, check yes
  max neighbors/atom: 2000, page size: 100000
  master list distance cutoff = 6.8
  ghost atom cutoff = 6.8
  binsize = 3.4, bins = 5 5 5
  1 neighbor lists, perpetual/occasional/extra = 1 0 0
  (1) pair eam, perpetual
      attributes: half, newton on
      pair build: half/bin/atomonly/newton
      stencil: half/bin/3d/newton
      bin: standard
Per MPI rank memory allocation (min/avg/max) = 3.93 | 3.93 | 3.93 Mbytes
Step PotEng Atoms 
       0    4685.4861     1024 
       1    4685.4861     1024 
Loop time of 0 on 1 procs for 1 steps with 1024 atoms

Performance: inf ns/day, 0.000 hours/ns, inf timesteps/s
0.0% CPU use with 1 MPI tasks x 1 OpenMP threads

MPI task timing breakdown:
Section |  min time  |  avg time  |  max time  |%varavg| %total
---------------------------------------------------------------
Pair    | 0          | 0          | 0          |   0.0 |  0.00
Neigh   | 0          | 0          | 0          |   0.0 |  0.00
Comm    | 0          | 0          | 0          |   0.0 |  0.00
Output  | 0          | 0          | 0          |   0.0 |  0.00
Modify  | 0          | 0          | 0          |   0.0 |  0.00
Other   |            | 0          |            |       |  0.00

Nlocal:    1024 ave 1024 max 1024 min
Histogram: 1 0 0 0 0 0 0 0 0 0
Nghost:    5095 ave 5095 max 5095 min
Histogram: 1 0 0 0 0 0 0 0 0 0
Neighs:    156672 ave 156672 max 156672 min
Histogram: 1 0 0 0 0 0 0 0 0 0

Total # of neighbors = 156672
Ave neighs/atom = 153
Neighbor list builds = 0
Dangerous builds = 0

  variable	   atoms equal "atoms"
  variable	   pe equal "pe"
  variable	   ce equal "v_pe/v_atoms"
  # Output
  print 	  "$a ${ce}" append Ni_FCC.dat
2.07 4.5756700642014
#------------------------------------------------------------------------------#

#----------------------------- Loop procedure ---------------------------------#
  # Looping
  clear
OMP_NUM_THREADS environment is not set. Defaulting to 1 thread. (../comm.cpp:87)
  using 1 OpenMP thread(s) per MPI task
  next 		   i
  jump 		   in.txt
# This script runs a simulation loop to generate cohesive energy values for a range of lattice distances.

#--------------------------- Simulation variables -----------------------------#
  variable 	   i loop 600
  variable 	   a equal 2+0.005*$i
  variable 	   a equal 2+0.005*15
#------------------------------------------------------------------------------#

#---------------------------- Atomic setup ------------------------------------#
  units 	   metal
  dimension	   3
  boundary	   p p p

  # Create atoms.
  lattice          bcc ${a}
  lattice          bcc 2.075
Lattice spacing in x,y,z = 2.075 2.075 2.075
  region           sim_box block 0 8 0 8 0 8
  create_box       1 sim_box
Created orthogonal box = (0 0 0) to (16.6 16.6 16.6)
  1 by 1 by 1 MPI processor grid
  create_atoms     1 box
Created 1024 atoms
  Time spent = 0 secs

  # Define interatomic potential.
  pair_style       eam
  pair_coeff       * * Ni_u3.eam
Reading potential file Ni_u3.eam with DATE: 2007-06-11
  neigh_modify     delay 0
#------------------------------------------------------------------------------#

#----------------------------- Run simulation ---------------------------------#
  # Compute
  thermo	   1
  thermo_style     custom step pe atoms

  run 		   1
WARNING: No fixes defined, atoms won't move (../verlet.cpp:55)
Neighbor list info ...
  update every 1 steps, delay 0 steps, check yes
  max neighbors/atom: 2000, page size: 100000
  master list distance cutoff = 6.8
  ghost atom cutoff = 6.8
  binsize = 3.4, bins = 5 5 5
  1 neighbor lists, perpetual/occasional/extra = 1 0 0
  (1) pair eam, perpetual
      attributes: half, newton on
      pair build: half/bin/atomonly/newton
      stencil: half/bin/3d/newton
      bin: standard
Per MPI rank memory allocation (min/avg/max) = 3.93 | 3.93 | 3.93 Mbytes
Step PotEng Atoms 
       0     4504.526     1024 
       1     4504.526     1024 
Loop time of 0.0156 on 1 procs for 1 steps with 1024 atoms

Performance: 5.538 ns/day, 4.333 hours/ns, 64.103 timesteps/s
100.0% CPU use with 1 MPI tasks x 1 OpenMP threads

MPI task timing breakdown:
Section |  min time  |  avg time  |  max time  |%varavg| %total
---------------------------------------------------------------
Pair    | 0.0156     | 0.0156     | 0.0156     |   0.0 |100.00
Neigh   | 0          | 0          | 0          |   0.0 |  0.00
Comm    | 0          | 0          | 0          |   0.0 |  0.00
Output  | 0          | 0          | 0          |   0.0 |  0.00
Modify  | 0          | 0          | 0          |   0.0 |  0.00
Other   |            | 0          |            |       |  0.00

Nlocal:    1024 ave 1024 max 1024 min
Histogram: 1 0 0 0 0 0 0 0 0 0
Nghost:    5095 ave 5095 max 5095 min
Histogram: 1 0 0 0 0 0 0 0 0 0
Neighs:    144384 ave 144384 max 144384 min
Histogram: 1 0 0 0 0 0 0 0 0 0

Total # of neighbors = 144384
Ave neighs/atom = 141
Neighbor list builds = 0
Dangerous builds = 0

  variable	   atoms equal "atoms"
  variable	   pe equal "pe"
  variable	   ce equal "v_pe/v_atoms"
  # Output
  print 	  "$a ${ce}" append Ni_FCC.dat
2.075 4.39895114486151
#------------------------------------------------------------------------------#

#----------------------------- Loop procedure ---------------------------------#
  # Looping
  clear
OMP_NUM_THREADS environment is not set. Defaulting to 1 thread. (../comm.cpp:87)
  using 1 OpenMP thread(s) per MPI task
  next 		   i
  jump 		   in.txt
# This script runs a simulation loop to generate cohesive energy values for a range of lattice distances.

#--------------------------- Simulation variables -----------------------------#
  variable 	   i loop 600
  variable 	   a equal 2+0.005*$i
  variable 	   a equal 2+0.005*16
#------------------------------------------------------------------------------#

#---------------------------- Atomic setup ------------------------------------#
  units 	   metal
  dimension	   3
  boundary	   p p p

  # Create atoms.
  lattice          bcc ${a}
  lattice          bcc 2.08
Lattice spacing in x,y,z = 2.08 2.08 2.08
  region           sim_box block 0 8 0 8 0 8
  create_box       1 sim_box
Created orthogonal box = (0 0 0) to (16.64 16.64 16.64)
  1 by 1 by 1 MPI processor grid
  create_atoms     1 box
Created 1024 atoms
  Time spent = 0 secs

  # Define interatomic potential.
  pair_style       eam
  pair_coeff       * * Ni_u3.eam
Reading potential file Ni_u3.eam with DATE: 2007-06-11
  neigh_modify     delay 0
#------------------------------------------------------------------------------#

#----------------------------- Run simulation ---------------------------------#
  # Compute
  thermo	   1
  thermo_style     custom step pe atoms

  run 		   1
WARNING: No fixes defined, atoms won't move (../verlet.cpp:55)
Neighbor list info ...
  update every 1 steps, delay 0 steps, check yes
  max neighbors/atom: 2000, page size: 100000
  master list distance cutoff = 6.8
  ghost atom cutoff = 6.8
  binsize = 3.4, bins = 5 5 5
  1 neighbor lists, perpetual/occasional/extra = 1 0 0
  (1) pair eam, perpetual
      attributes: half, newton on
      pair build: half/bin/atomonly/newton
      stencil: half/bin/3d/newton
      bin: standard
Per MPI rank memory allocation (min/avg/max) = 3.93 | 3.93 | 3.93 Mbytes
Step PotEng Atoms 
       0    4326.2958     1024 
       1    4326.2958     1024 
Loop time of 0 on 1 procs for 1 steps with 1024 atoms

Performance: inf ns/day, 0.000 hours/ns, inf timesteps/s
0.0% CPU use with 1 MPI tasks x 1 OpenMP threads

MPI task timing breakdown:
Section |  min time  |  avg time  |  max time  |%varavg| %total
---------------------------------------------------------------
Pair    | 0          | 0          | 0          |   0.0 |  0.00
Neigh   | 0          | 0          | 0          |   0.0 |  0.00
Comm    | 0          | 0          | 0          |   0.0 |  0.00
Output  | 0          | 0          | 0          |   0.0 |  0.00
Modify  | 0          | 0          | 0          |   0.0 |  0.00
Other   |            | 0          |            |       |  0.00

Nlocal:    1024 ave 1024 max 1024 min
Histogram: 1 0 0 0 0 0 0 0 0 0
Nghost:    5095 ave 5095 max 5095 min
Histogram: 1 0 0 0 0 0 0 0 0 0
Neighs:    144384 ave 144384 max 144384 min
Histogram: 1 0 0 0 0 0 0 0 0 0

Total # of neighbors = 144384
Ave neighs/atom = 141
Neighbor list builds = 0
Dangerous builds = 0

  variable	   atoms equal "atoms"
  variable	   pe equal "pe"
  variable	   ce equal "v_pe/v_atoms"
  # Output
  print 	  "$a ${ce}" append Ni_FCC.dat
2.08 4.2248982286805
#------------------------------------------------------------------------------#

#----------------------------- Loop procedure ---------------------------------#
  # Looping
  clear
OMP_NUM_THREADS environment is not set. Defaulting to 1 thread. (../comm.cpp:87)
  using 1 OpenMP thread(s) per MPI task
  next 		   i
  jump 		   in.txt
# This script runs a simulation loop to generate cohesive energy values for a range of lattice distances.

#--------------------------- Simulation variables -----------------------------#
  variable 	   i loop 600
  variable 	   a equal 2+0.005*$i
  variable 	   a equal 2+0.005*17
#------------------------------------------------------------------------------#

#---------------------------- Atomic setup ------------------------------------#
  units 	   metal
  dimension	   3
  boundary	   p p p

  # Create atoms.
  lattice          bcc ${a}
  lattice          bcc 2.085
Lattice spacing in x,y,z = 2.085 2.085 2.085
  region           sim_box block 0 8 0 8 0 8
  create_box       1 sim_box
Created orthogonal box = (0 0 0) to (16.68 16.68 16.68)
  1 by 1 by 1 MPI processor grid
  create_atoms     1 box
Created 1024 atoms
  Time spent = 0 secs

  # Define interatomic potential.
  pair_style       eam
  pair_coeff       * * Ni_u3.eam
Reading potential file Ni_u3.eam with DATE: 2007-06-11
  neigh_modify     delay 0
#------------------------------------------------------------------------------#

#----------------------------- Run simulation ---------------------------------#
  # Compute
  thermo	   1
  thermo_style     custom step pe atoms

  run 		   1
WARNING: No fixes defined, atoms won't move (../verlet.cpp:55)
Neighbor list info ...
  update every 1 steps, delay 0 steps, check yes
  max neighbors/atom: 2000, page size: 100000
  master list distance cutoff = 6.8
  ghost atom cutoff = 6.8
  binsize = 3.4, bins = 5 5 5
  1 neighbor lists, perpetual/occasional/extra = 1 0 0
  (1) pair eam, perpetual
      attributes: half, newton on
      pair build: half/bin/atomonly/newton
      stencil: half/bin/3d/newton
      bin: standard
Per MPI rank memory allocation (min/avg/max) = 3.93 | 3.93 | 3.93 Mbytes
Step PotEng Atoms 
       0    4150.7643     1024 
       1    4150.7643     1024 
Loop time of 0 on 1 procs for 1 steps with 1024 atoms

Performance: inf ns/day, 0.000 hours/ns, inf timesteps/s
0.0% CPU use with 1 MPI tasks x 1 OpenMP threads

MPI task timing breakdown:
Section |  min time  |  avg time  |  max time  |%varavg| %total
---------------------------------------------------------------
Pair    | 0          | 0          | 0          |   0.0 |  0.00
Neigh   | 0          | 0          | 0          |   0.0 |  0.00
Comm    | 0          | 0          | 0          |   0.0 |  0.00
Output  | 0          | 0          | 0          |   0.0 |  0.00
Modify  | 0          | 0          | 0          |   0.0 |  0.00
Other   |            | 0          |            |       |  0.00

Nlocal:    1024 ave 1024 max 1024 min
Histogram: 1 0 0 0 0 0 0 0 0 0
Nghost:    5095 ave 5095 max 5095 min
Histogram: 1 0 0 0 0 0 0 0 0 0
Neighs:    144384 ave 144384 max 144384 min
Histogram: 1 0 0 0 0 0 0 0 0 0

Total # of neighbors = 144384
Ave neighs/atom = 141
Neighbor list builds = 0
Dangerous builds = 0

  variable	   atoms equal "atoms"
  variable	   pe equal "pe"
  variable	   ce equal "v_pe/v_atoms"
  # Output
  print 	  "$a ${ce}" append Ni_FCC.dat
2.085 4.05348071557732
#------------------------------------------------------------------------------#

#----------------------------- Loop procedure ---------------------------------#
  # Looping
  clear
OMP_NUM_THREADS environment is not set. Defaulting to 1 thread. (../comm.cpp:87)
  using 1 OpenMP thread(s) per MPI task
  next 		   i
  jump 		   in.txt
# This script runs a simulation loop to generate cohesive energy values for a range of lattice distances.

#--------------------------- Simulation variables -----------------------------#
  variable 	   i loop 600
  variable 	   a equal 2+0.005*$i
  variable 	   a equal 2+0.005*18
#------------------------------------------------------------------------------#

#---------------------------- Atomic setup ------------------------------------#
  units 	   metal
  dimension	   3
  boundary	   p p p

  # Create atoms.
  lattice          bcc ${a}
  lattice          bcc 2.09
Lattice spacing in x,y,z = 2.09 2.09 2.09
  region           sim_box block 0 8 0 8 0 8
  create_box       1 sim_box
Created orthogonal box = (0 0 0) to (16.72 16.72 16.72)
  1 by 1 by 1 MPI processor grid
  create_atoms     1 box
Created 1024 atoms
  Time spent = 0 secs

  # Define interatomic potential.
  pair_style       eam
  pair_coeff       * * Ni_u3.eam
Reading potential file Ni_u3.eam with DATE: 2007-06-11
  neigh_modify     delay 0
#------------------------------------------------------------------------------#

#----------------------------- Run simulation ---------------------------------#
  # Compute
  thermo	   1
  thermo_style     custom step pe atoms

  run 		   1
WARNING: No fixes defined, atoms won't move (../verlet.cpp:55)
Neighbor list info ...
  update every 1 steps, delay 0 steps, check yes
  max neighbors/atom: 2000, page size: 100000
  master list distance cutoff = 6.8
  ghost atom cutoff = 6.8
  binsize = 3.4, bins = 5 5 5
  1 neighbor lists, perpetual/occasional/extra = 1 0 0
  (1) pair eam, perpetual
      attributes: half, newton on
      pair build: half/bin/atomonly/newton
      stencil: half/bin/3d/newton
      bin: standard
Per MPI rank memory allocation (min/avg/max) = 3.93 | 3.93 | 3.93 Mbytes
Step PotEng Atoms 
       0    3977.9003     1024 
       1    3977.9003     1024 
Loop time of 0.0156 on 1 procs for 1 steps with 1024 atoms

Performance: 5.538 ns/day, 4.333 hours/ns, 64.103 timesteps/s
100.0% CPU use with 1 MPI tasks x 1 OpenMP threads

MPI task timing breakdown:
Section |  min time  |  avg time  |  max time  |%varavg| %total
---------------------------------------------------------------
Pair    | 0.0156     | 0.0156     | 0.0156     |   0.0 |100.00
Neigh   | 0          | 0          | 0          |   0.0 |  0.00
Comm    | 0          | 0          | 0          |   0.0 |  0.00
Output  | 0          | 0          | 0          |   0.0 |  0.00
Modify  | 0          | 0          | 0          |   0.0 |  0.00
Other   |            | 0          |            |       |  0.00

Nlocal:    1024 ave 1024 max 1024 min
Histogram: 1 0 0 0 0 0 0 0 0 0
Nghost:    5095 ave 5095 max 5095 min
Histogram: 1 0 0 0 0 0 0 0 0 0
Neighs:    144384 ave 144384 max 144384 min
Histogram: 1 0 0 0 0 0 0 0 0 0

Total # of neighbors = 144384
Ave neighs/atom = 141
Neighbor list builds = 0
Dangerous builds = 0

  variable	   atoms equal "atoms"
  variable	   pe equal "pe"
  variable	   ce equal "v_pe/v_atoms"
  # Output
  print 	  "$a ${ce}" append Ni_FCC.dat
2.09 3.8846682295873
#------------------------------------------------------------------------------#

#----------------------------- Loop procedure ---------------------------------#
  # Looping
  clear
OMP_NUM_THREADS environment is not set. Defaulting to 1 thread. (../comm.cpp:87)
  using 1 OpenMP thread(s) per MPI task
  next 		   i
  jump 		   in.txt
# This script runs a simulation loop to generate cohesive energy values for a range of lattice distances.

#--------------------------- Simulation variables -----------------------------#
  variable 	   i loop 600
  variable 	   a equal 2+0.005*$i
  variable 	   a equal 2+0.005*19
#------------------------------------------------------------------------------#

#---------------------------- Atomic setup ------------------------------------#
  units 	   metal
  dimension	   3
  boundary	   p p p

  # Create atoms.
  lattice          bcc ${a}
  lattice          bcc 2.095
Lattice spacing in x,y,z = 2.095 2.095 2.095
  region           sim_box block 0 8 0 8 0 8
  create_box       1 sim_box
Created orthogonal box = (0 0 0) to (16.76 16.76 16.76)
  1 by 1 by 1 MPI processor grid
  create_atoms     1 box
Created 1024 atoms
  Time spent = 0 secs

  # Define interatomic potential.
  pair_style       eam
  pair_coeff       * * Ni_u3.eam
Reading potential file Ni_u3.eam with DATE: 2007-06-11
  neigh_modify     delay 0
#------------------------------------------------------------------------------#

#----------------------------- Run simulation ---------------------------------#
  # Compute
  thermo	   1
  thermo_style     custom step pe atoms

  run 		   1
WARNING: No fixes defined, atoms won't move (../verlet.cpp:55)
Neighbor list info ...
  update every 1 steps, delay 0 steps, check yes
  max neighbors/atom: 2000, page size: 100000
  master list distance cutoff = 6.8
  ghost atom cutoff = 6.8
  binsize = 3.4, bins = 5 5 5
  1 neighbor lists, perpetual/occasional/extra = 1 0 0
  (1) pair eam, perpetual
      attributes: half, newton on
      pair build: half/bin/atomonly/newton
      stencil: half/bin/3d/newton
      bin: standard
Per MPI rank memory allocation (min/avg/max) = 3.93 | 3.93 | 3.93 Mbytes
Step PotEng Atoms 
       0    3807.6731     1024 
       1    3807.6731     1024 
Loop time of 0.00500011 on 1 procs for 1 steps with 1024 atoms

Performance: 17.280 ns/day, 1.389 hours/ns, 199.995 timesteps/s
0.0% CPU use with 1 MPI tasks x 1 OpenMP threads

MPI task timing breakdown:
Section |  min time  |  avg time  |  max time  |%varavg| %total
---------------------------------------------------------------
Pair    | 0.0050001  | 0.0050001  | 0.0050001  |   0.0 |100.00
Neigh   | 0          | 0          | 0          |   0.0 |  0.00
Comm    | 0          | 0          | 0          |   0.0 |  0.00
Output  | 0          | 0          | 0          |   0.0 |  0.00
Modify  | 0          | 0          | 0          |   0.0 |  0.00
Other   |            | 0          |            |       |  0.00

Nlocal:    1024 ave 1024 max 1024 min
Histogram: 1 0 0 0 0 0 0 0 0 0
Nghost:    5095 ave 5095 max 5095 min
Histogram: 1 0 0 0 0 0 0 0 0 0
Neighs:    144384 ave 144384 max 144384 min
Histogram: 1 0 0 0 0 0 0 0 0 0

Total # of neighbors = 144384
Ave neighs/atom = 141
Neighbor list builds = 0
Dangerous builds = 0

  variable	   atoms equal "atoms"
  variable	   pe equal "pe"
  variable	   ce equal "v_pe/v_atoms"
  # Output
  print 	  "$a ${ce}" append Ni_FCC.dat
2.095 3.71843071707127
#------------------------------------------------------------------------------#

#----------------------------- Loop procedure ---------------------------------#
  # Looping
  clear
OMP_NUM_THREADS environment is not set. Defaulting to 1 thread. (../comm.cpp:87)
  using 1 OpenMP thread(s) per MPI task
  next 		   i
  jump 		   in.txt
# This script runs a simulation loop to generate cohesive energy values for a range of lattice distances.

#--------------------------- Simulation variables -----------------------------#
  variable 	   i loop 600
  variable 	   a equal 2+0.005*$i
  variable 	   a equal 2+0.005*20
#------------------------------------------------------------------------------#

#---------------------------- Atomic setup ------------------------------------#
  units 	   metal
  dimension	   3
  boundary	   p p p

  # Create atoms.
  lattice          bcc ${a}
  lattice          bcc 2.1
Lattice spacing in x,y,z = 2.1 2.1 2.1
  region           sim_box block 0 8 0 8 0 8
  create_box       1 sim_box
Created orthogonal box = (0 0 0) to (16.8 16.8 16.8)
  1 by 1 by 1 MPI processor grid
  create_atoms     1 box
Created 1024 atoms
  Time spent = 0.00250006 secs

  # Define interatomic potential.
  pair_style       eam
  pair_coeff       * * Ni_u3.eam
Reading potential file Ni_u3.eam with DATE: 2007-06-11
  neigh_modify     delay 0
#------------------------------------------------------------------------------#

#----------------------------- Run simulation ---------------------------------#
  # Compute
  thermo	   1
  thermo_style     custom step pe atoms

  run 		   1
WARNING: No fixes defined, atoms won't move (../verlet.cpp:55)
Neighbor list info ...
  update every 1 steps, delay 0 steps, check yes
  max neighbors/atom: 2000, page size: 100000
  master list distance cutoff = 6.8
  ghost atom cutoff = 6.8
  binsize = 3.4, bins = 5 5 5
  1 neighbor lists, perpetual/occasional/extra = 1 0 0
  (1) pair eam, perpetual
      attributes: half, newton on
      pair build: half/bin/atomonly/newton
      stencil: half/bin/3d/newton
      bin: standard
Per MPI rank memory allocation (min/avg/max) = 3.93 | 3.93 | 3.93 Mbytes
Step PotEng Atoms 
       0     3640.052     1024 
       1     3640.052     1024 
Loop time of 0.00750017 on 1 procs for 1 steps with 1024 atoms

Performance: 11.520 ns/day, 2.083 hours/ns, 133.330 timesteps/s
0.0% CPU use with 1 MPI tasks x 1 OpenMP threads

MPI task timing breakdown:
Section |  min time  |  avg time  |  max time  |%varavg| %total
---------------------------------------------------------------
Pair    | 0.0050001  | 0.0050001  | 0.0050001  |   0.0 | 66.67
Neigh   | 0          | 0          | 0          |   0.0 |  0.00
Comm    | 0          | 0          | 0          |   0.0 |  0.00
Output  | 0.0025001  | 0.0025001  | 0.0025001  |   0.0 | 33.33
Modify  | 0          | 0          | 0          |   0.0 |  0.00
Other   |            | 0          |            |       |  0.00

Nlocal:    1024 ave 1024 max 1024 min
Histogram: 1 0 0 0 0 0 0 0 0 0
Nghost:    5095 ave 5095 max 5095 min
Histogram: 1 0 0 0 0 0 0 0 0 0
Neighs:    144384 ave 144384 max 144384 min
Histogram: 1 0 0 0 0 0 0 0 0 0

Total # of neighbors = 144384
Ave neighs/atom = 141
Neighbor list builds = 0
Dangerous builds = 0

  variable	   atoms equal "atoms"
  variable	   pe equal "pe"
  variable	   ce equal "v_pe/v_atoms"
  # Output
  print 	  "$a ${ce}" append Ni_FCC.dat
2.1 3.55473829348435
#------------------------------------------------------------------------------#

#----------------------------- Loop procedure ---------------------------------#
  # Looping
  clear
OMP_NUM_THREADS environment is not set. Defaulting to 1 thread. (../comm.cpp:87)
  using 1 OpenMP thread(s) per MPI task
  next 		   i
  jump 		   in.txt
# This script runs a simulation loop to generate cohesive energy values for a range of lattice distances.

#--------------------------- Simulation variables -----------------------------#
  variable 	   i loop 600
  variable 	   a equal 2+0.005*$i
  variable 	   a equal 2+0.005*21
#------------------------------------------------------------------------------#

#---------------------------- Atomic setup ------------------------------------#
  units 	   metal
  dimension	   3
  boundary	   p p p

  # Create atoms.
  lattice          bcc ${a}
  lattice          bcc 2.105
Lattice spacing in x,y,z = 2.105 2.105 2.105
  region           sim_box block 0 8 0 8 0 8
  create_box       1 sim_box
Created orthogonal box = (0 0 0) to (16.84 16.84 16.84)
  1 by 1 by 1 MPI processor grid
  create_atoms     1 box
Created 1024 atoms
  Time spent = 0 secs

  # Define interatomic potential.
  pair_style       eam
  pair_coeff       * * Ni_u3.eam
Reading potential file Ni_u3.eam with DATE: 2007-06-11
  neigh_modify     delay 0
#------------------------------------------------------------------------------#

#----------------------------- Run simulation ---------------------------------#
  # Compute
  thermo	   1
  thermo_style     custom step pe atoms

  run 		   1
WARNING: No fixes defined, atoms won't move (../verlet.cpp:55)
Neighbor list info ...
  update every 1 steps, delay 0 steps, check yes
  max neighbors/atom: 2000, page size: 100000
  master list distance cutoff = 6.8
  ghost atom cutoff = 6.8
  binsize = 3.4, bins = 5 5 5
  1 neighbor lists, perpetual/occasional/extra = 1 0 0
  (1) pair eam, perpetual
      attributes: half, newton on
      pair build: half/bin/atomonly/newton
      stencil: half/bin/3d/newton
      bin: standard
Per MPI rank memory allocation (min/avg/max) = 3.93 | 3.93 | 3.93 Mbytes
Step PotEng Atoms 
       0    3475.0069     1024 
       1    3475.0069     1024 
Loop time of 0.00500011 on 1 procs for 1 steps with 1024 atoms

Performance: 17.280 ns/day, 1.389 hours/ns, 199.995 timesteps/s
0.0% CPU use with 1 MPI tasks x 1 OpenMP threads

MPI task timing breakdown:
Section |  min time  |  avg time  |  max time  |%varavg| %total
---------------------------------------------------------------
Pair    | 0.0050001  | 0.0050001  | 0.0050001  |   0.0 |100.00
Neigh   | 0          | 0          | 0          |   0.0 |  0.00
Comm    | 0          | 0          | 0          |   0.0 |  0.00
Output  | 0          | 0          | 0          |   0.0 |  0.00
Modify  | 0          | 0          | 0          |   0.0 |  0.00
Other   |            | 0          |            |       |  0.00

Nlocal:    1024 ave 1024 max 1024 min
Histogram: 1 0 0 0 0 0 0 0 0 0
Nghost:    5095 ave 5095 max 5095 min
Histogram: 1 0 0 0 0 0 0 0 0 0
Neighs:    144384 ave 144384 max 144384 min
Histogram: 1 0 0 0 0 0 0 0 0 0

Total # of neighbors = 144384
Ave neighs/atom = 141
Neighbor list builds = 0
Dangerous builds = 0

  variable	   atoms equal "atoms"
  variable	   pe equal "pe"
  variable	   ce equal "v_pe/v_atoms"
  # Output
  print 	  "$a ${ce}" append Ni_FCC.dat
2.105 3.39356144900516
#------------------------------------------------------------------------------#

#----------------------------- Loop procedure ---------------------------------#
  # Looping
  clear
OMP_NUM_THREADS environment is not set. Defaulting to 1 thread. (../comm.cpp:87)
  using 1 OpenMP thread(s) per MPI task
  next 		   i
  jump 		   in.txt
# This script runs a simulation loop to generate cohesive energy values for a range of lattice distances.

#--------------------------- Simulation variables -----------------------------#
  variable 	   i loop 600
  variable 	   a equal 2+0.005*$i
  variable 	   a equal 2+0.005*22
#------------------------------------------------------------------------------#

#---------------------------- Atomic setup ------------------------------------#
  units 	   metal
  dimension	   3
  boundary	   p p p

  # Create atoms.
  lattice          bcc ${a}
  lattice          bcc 2.11
Lattice spacing in x,y,z = 2.11 2.11 2.11
  region           sim_box block 0 8 0 8 0 8
  create_box       1 sim_box
Created orthogonal box = (0 0 0) to (16.88 16.88 16.88)
  1 by 1 by 1 MPI processor grid
  create_atoms     1 box
Created 1024 atoms
  Time spent = 0 secs

  # Define interatomic potential.
  pair_style       eam
  pair_coeff       * * Ni_u3.eam
Reading potential file Ni_u3.eam with DATE: 2007-06-11
  neigh_modify     delay 0
#------------------------------------------------------------------------------#

#----------------------------- Run simulation ---------------------------------#
  # Compute
  thermo	   1
  thermo_style     custom step pe atoms

  run 		   1
WARNING: No fixes defined, atoms won't move (../verlet.cpp:55)
Neighbor list info ...
  update every 1 steps, delay 0 steps, check yes
  max neighbors/atom: 2000, page size: 100000
  master list distance cutoff = 6.8
  ghost atom cutoff = 6.8
  binsize = 3.4, bins = 5 5 5
  1 neighbor lists, perpetual/occasional/extra = 1 0 0
  (1) pair eam, perpetual
      attributes: half, newton on
      pair build: half/bin/atomonly/newton
      stencil: half/bin/3d/newton
      bin: standard
Per MPI rank memory allocation (min/avg/max) = 3.93 | 3.93 | 3.93 Mbytes
Step PotEng Atoms 
       0    3312.5077     1024 
       1    3312.5077     1024 
Loop time of 0.00499988 on 1 procs for 1 steps with 1024 atoms

Performance: 17.280 ns/day, 1.389 hours/ns, 200.005 timesteps/s
312.0% CPU use with 1 MPI tasks x 1 OpenMP threads

MPI task timing breakdown:
Section |  min time  |  avg time  |  max time  |%varavg| %total
---------------------------------------------------------------
Pair    | 0.0049999  | 0.0049999  | 0.0049999  |   0.0 |100.00
Neigh   | 0          | 0          | 0          |   0.0 |  0.00
Comm    | 0          | 0          | 0          |   0.0 |  0.00
Output  | 0          | 0          | 0          |   0.0 |  0.00
Modify  | 0          | 0          | 0          |   0.0 |  0.00
Other   |            | 0          |            |       |  0.00

Nlocal:    1024 ave 1024 max 1024 min
Histogram: 1 0 0 0 0 0 0 0 0 0
Nghost:    5095 ave 5095 max 5095 min
Histogram: 1 0 0 0 0 0 0 0 0 0
Neighs:    144384 ave 144384 max 144384 min
Histogram: 1 0 0 0 0 0 0 0 0 0

Total # of neighbors = 144384
Ave neighs/atom = 141
Neighbor list builds = 0
Dangerous builds = 0

  variable	   atoms equal "atoms"
  variable	   pe equal "pe"
  variable	   ce equal "v_pe/v_atoms"
  # Output
  print 	  "$a ${ce}" append Ni_FCC.dat
2.11 3.23487079440797
#------------------------------------------------------------------------------#

#----------------------------- Loop procedure ---------------------------------#
  # Looping
  clear
OMP_NUM_THREADS environment is not set. Defaulting to 1 thread. (../comm.cpp:87)
  using 1 OpenMP thread(s) per MPI task
  next 		   i
  jump 		   in.txt
# This script runs a simulation loop to generate cohesive energy values for a range of lattice distances.

#--------------------------- Simulation variables -----------------------------#
  variable 	   i loop 600
  variable 	   a equal 2+0.005*$i
  variable 	   a equal 2+0.005*23
#------------------------------------------------------------------------------#

#---------------------------- Atomic setup ------------------------------------#
  units 	   metal
  dimension	   3
  boundary	   p p p

  # Create atoms.
  lattice          bcc ${a}
  lattice          bcc 2.115
Lattice spacing in x,y,z = 2.115 2.115 2.115
  region           sim_box block 0 8 0 8 0 8
  create_box       1 sim_box
Created orthogonal box = (0 0 0) to (16.92 16.92 16.92)
  1 by 1 by 1 MPI processor grid
  create_atoms     1 box
Created 1024 atoms
  Time spent = 0 secs

  # Define interatomic potential.
  pair_style       eam
  pair_coeff       * * Ni_u3.eam
Reading potential file Ni_u3.eam with DATE: 2007-06-11
  neigh_modify     delay 0
#------------------------------------------------------------------------------#

#----------------------------- Run simulation ---------------------------------#
  # Compute
  thermo	   1
  thermo_style     custom step pe atoms

  run 		   1
WARNING: No fixes defined, atoms won't move (../verlet.cpp:55)
Neighbor list info ...
  update every 1 steps, delay 0 steps, check yes
  max neighbors/atom: 2000, page size: 100000
  master list distance cutoff = 6.8
  ghost atom cutoff = 6.8
  binsize = 3.4, bins = 5 5 5
  1 neighbor lists, perpetual/occasional/extra = 1 0 0
  (1) pair eam, perpetual
      attributes: half, newton on
      pair build: half/bin/atomonly/newton
      stencil: half/bin/3d/newton
      bin: standard
Per MPI rank memory allocation (min/avg/max) = 3.93 | 3.93 | 3.93 Mbytes
Step PotEng Atoms 
       0    3152.5246     1024 
       1    3152.5246     1024 
Loop time of 0.00749993 on 1 procs for 1 steps with 1024 atoms

Performance: 11.520 ns/day, 2.083 hours/ns, 133.335 timesteps/s
[...]
  thermo_style     custom step pe atoms

  run 		   1
WARNING: No fixes defined, atoms won't move (../verlet.cpp:55)
Neighbor list info ...
  update every 1 steps, delay 0 steps, check yes
  max neighbors/atom: 2000, page size: 100000
  master list distance cutoff = 6.8
  ghost atom cutoff = 6.8
  binsize = 3.4, bins = 12 12 12
  1 neighbor lists, perpetual/occasional/extra = 1 0 0
  (1) pair eam, perpetual
      attributes: half, newton on
      pair build: half/bin/atomonly/newton
      stencil: half/bin/3d/newton
      bin: standard
Per MPI rank memory allocation (min/avg/max) = 3.373 | 3.373 | 3.373 Mbytes
Step PotEng Atoms 
       0   -220.67561     1024 
       1   -220.67561     1024 
Loop time of 0 on 1 procs for 1 steps with 1024 atoms

Performance: inf ns/day, 0.000 hours/ns, inf timesteps/s
0.0% CPU use with 1 MPI tasks x 1 OpenMP threads

MPI task timing breakdown:
Section |  min time  |  avg time  |  max time  |%varavg| %total
---------------------------------------------------------------
Pair    | 0          | 0          | 0          |   0.0 |  0.00
Neigh   | 0          | 0          | 0          |   0.0 |  0.00
Comm    | 0          | 0          | 0          |   0.0 |  0.00
Output  | 0          | 0          | 0          |   0.0 |  0.00
Modify  | 0          | 0          | 0          |   0.0 |  0.00
Other   |            | 0          |            |       |  0.00

Nlocal:    1024 ave 1024 max 1024 min
Histogram: 1 0 0 0 0 0 0 0 0 0
Nghost:    1307 ave 1307 max 1307 min
Histogram: 1 0 0 0 0 0 0 0 0 0
Neighs:    7168 ave 7168 max 7168 min
Histogram: 1 0 0 0 0 0 0 0 0 0

Total # of neighbors = 7168
Ave neighs/atom = 7
Neighbor list builds = 0
Dangerous builds = 0

  variable	   atoms equal "atoms"
  variable	   pe equal "pe"
  variable	   ce equal "v_pe/v_atoms"
  # Output
  print 	  "$a ${ce}" append Ni_FCC.dat
4.975 -0.215503524965699
#------------------------------------------------------------------------------#

#----------------------------- Loop procedure ---------------------------------#
  # Looping
  clear
OMP_NUM_THREADS environment is not set. Defaulting to 1 thread. (../comm.cpp:87)
  using 1 OpenMP thread(s) per MPI task
  next 		   i
  jump 		   in.txt
# This script runs a simulation loop to generate cohesive energy values for a range of lattice distances.

#--------------------------- Simulation variables -----------------------------#
  variable 	   i loop 600
  variable 	   a equal 2+0.005*$i
  variable 	   a equal 2+0.005*596
#------------------------------------------------------------------------------#

#---------------------------- Atomic setup ------------------------------------#
  units 	   metal
  dimension	   3
  boundary	   p p p

  # Create atoms.
  lattice          bcc ${a}
  lattice          bcc 4.98
Lattice spacing in x,y,z = 4.98 4.98 4.98
  region           sim_box block 0 8 0 8 0 8
  create_box       1 sim_box
Created orthogonal box = (0 0 0) to (39.84 39.84 39.84)
  1 by 1 by 1 MPI processor grid
  create_atoms     1 box
Created 1024 atoms
  Time spent = 0 secs

  # Define interatomic potential.
  pair_style       eam
  pair_coeff       * * Ni_u3.eam
Reading potential file Ni_u3.eam with DATE: 2007-06-11
  neigh_modify     delay 0
#------------------------------------------------------------------------------#

#----------------------------- Run simulation ---------------------------------#
  # Compute
  thermo	   1
  thermo_style     custom step pe atoms

  run 		   1
WARNING: No fixes defined, atoms won't move (../verlet.cpp:55)
Neighbor list info ...
  update every 1 steps, delay 0 steps, check yes
  max neighbors/atom: 2000, page size: 100000
  master list distance cutoff = 6.8
  ghost atom cutoff = 6.8
  binsize = 3.4, bins = 12 12 12
  1 neighbor lists, perpetual/occasional/extra = 1 0 0
  (1) pair eam, perpetual
      attributes: half, newton on
      pair build: half/bin/atomonly/newton
      stencil: half/bin/3d/newton
      bin: standard
Per MPI rank memory allocation (min/avg/max) = 3.373 | 3.373 | 3.373 Mbytes
Step PotEng Atoms 
       0   -217.01732     1024 
       1   -217.01732     1024 
Loop time of 0 on 1 procs for 1 steps with 1024 atoms

Performance: inf ns/day, 0.000 hours/ns, inf timesteps/s
0.0% CPU use with 1 MPI tasks x 1 OpenMP threads

MPI task timing breakdown:
Section |  min time  |  avg time  |  max time  |%varavg| %total
---------------------------------------------------------------
Pair    | 0          | 0          | 0          |   0.0 |  0.00
Neigh   | 0          | 0          | 0          |   0.0 |  0.00
Comm    | 0          | 0          | 0          |   0.0 |  0.00
Output  | 0          | 0          | 0          |   0.0 |  0.00
Modify  | 0          | 0          | 0          |   0.0 |  0.00
Other   |            | 0          |            |       |  0.00

Nlocal:    1024 ave 1024 max 1024 min
Histogram: 1 0 0 0 0 0 0 0 0 0
Nghost:    1307 ave 1307 max 1307 min
Histogram: 1 0 0 0 0 0 0 0 0 0
Neighs:    7168 ave 7168 max 7168 min
Histogram: 1 0 0 0 0 0 0 0 0 0

Total # of neighbors = 7168
Ave neighs/atom = 7
Neighbor list builds = 0
Dangerous builds = 0

  variable	   atoms equal "atoms"
  variable	   pe equal "pe"
  variable	   ce equal "v_pe/v_atoms"
  # Output
  print 	  "$a ${ce}" append Ni_FCC.dat
4.98 -0.211930980408443
#------------------------------------------------------------------------------#

#----------------------------- Loop procedure ---------------------------------#
  # Looping
  clear
OMP_NUM_THREADS environment is not set. Defaulting to 1 thread. (../comm.cpp:87)
  using 1 OpenMP thread(s) per MPI task
  next 		   i
  jump 		   in.txt
# This script runs a simulation loop to generate cohesive energy values for a range of lattice distances.

#--------------------------- Simulation variables -----------------------------#
  variable 	   i loop 600
  variable 	   a equal 2+0.005*$i
  variable 	   a equal 2+0.005*597
#------------------------------------------------------------------------------#

#---------------------------- Atomic setup ------------------------------------#
  units 	   metal
  dimension	   3
  boundary	   p p p

  # Create atoms.
  lattice          bcc ${a}
  lattice          bcc 4.985
Lattice spacing in x,y,z = 4.985 4.985 4.985
  region           sim_box block 0 8 0 8 0 8
  create_box       1 sim_box
Created orthogonal box = (0 0 0) to (39.88 39.88 39.88)
  1 by 1 by 1 MPI processor grid
  create_atoms     1 box
Created 1024 atoms
  Time spent = 0 secs

  # Define interatomic potential.
  pair_style       eam
  pair_coeff       * * Ni_u3.eam
Reading potential file Ni_u3.eam with DATE: 2007-06-11
  neigh_modify     delay 0
#------------------------------------------------------------------------------#

#----------------------------- Run simulation ---------------------------------#
  # Compute
  thermo	   1
  thermo_style     custom step pe atoms

  run 		   1
WARNING: No fixes defined, atoms won't move (../verlet.cpp:55)
Neighbor list info ...
  update every 1 steps, delay 0 steps, check yes
  max neighbors/atom: 2000, page size: 100000
  master list distance cutoff = 6.8
  ghost atom cutoff = 6.8
  binsize = 3.4, bins = 12 12 12
  1 neighbor lists, perpetual/occasional/extra = 1 0 0
  (1) pair eam, perpetual
      attributes: half, newton on
      pair build: half/bin/atomonly/newton
      stencil: half/bin/3d/newton
      bin: standard
Per MPI rank memory allocation (min/avg/max) = 3.373 | 3.373 | 3.373 Mbytes
Step PotEng Atoms 
       0   -213.40147     1024 
       1   -213.40147     1024 
Loop time of 0 on 1 procs for 1 steps with 1024 atoms

Performance: inf ns/day, 0.000 hours/ns, inf timesteps/s
0.0% CPU use with 1 MPI tasks x 1 OpenMP threads

MPI task timing breakdown:
Section |  min time  |  avg time  |  max time  |%varavg| %total
---------------------------------------------------------------
Pair    | 0          | 0          | 0          |   0.0 |  0.00
Neigh   | 0          | 0          | 0          |   0.0 |  0.00
Comm    | 0          | 0          | 0          |   0.0 |  0.00
Output  | 0          | 0          | 0          |   0.0 |  0.00
Modify  | 0          | 0          | 0          |   0.0 |  0.00
Other   |            | 0          |            |       |  0.00

Nlocal:    1024 ave 1024 max 1024 min
Histogram: 1 0 0 0 0 0 0 0 0 0
Nghost:    1307 ave 1307 max 1307 min
Histogram: 1 0 0 0 0 0 0 0 0 0
Neighs:    7168 ave 7168 max 7168 min
Histogram: 1 0 0 0 0 0 0 0 0 0

Total # of neighbors = 7168
Ave neighs/atom = 7
Neighbor list builds = 0
Dangerous builds = 0

  variable	   atoms equal "atoms"
  variable	   pe equal "pe"
  variable	   ce equal "v_pe/v_atoms"
  # Output
  print 	  "$a ${ce}" append Ni_FCC.dat
4.985 -0.208399871887194
#------------------------------------------------------------------------------#

#----------------------------- Loop procedure ---------------------------------#
  # Looping
  clear
OMP_NUM_THREADS environment is not set. Defaulting to 1 thread. (../comm.cpp:87)
  using 1 OpenMP thread(s) per MPI task
  next 		   i
  jump 		   in.txt
# This script runs a simulation loop to generate cohesive energy values for a range of lattice distances.

#--------------------------- Simulation variables -----------------------------#
  variable 	   i loop 600
  variable 	   a equal 2+0.005*$i
  variable 	   a equal 2+0.005*598
#------------------------------------------------------------------------------#

#---------------------------- Atomic setup ------------------------------------#
  units 	   metal
  dimension	   3
  boundary	   p p p

  # Create atoms.
  lattice          bcc ${a}
  lattice          bcc 4.99
Lattice spacing in x,y,z = 4.99 4.99 4.99
  region           sim_box block 0 8 0 8 0 8
  create_box       1 sim_box
Created orthogonal box = (0 0 0) to (39.92 39.92 39.92)
  1 by 1 by 1 MPI processor grid
  create_atoms     1 box
Created 1024 atoms
  Time spent = 0 secs

  # Define interatomic potential.
  pair_style       eam
  pair_coeff       * * Ni_u3.eam
Reading potential file Ni_u3.eam with DATE: 2007-06-11
  neigh_modify     delay 0
#------------------------------------------------------------------------------#

#----------------------------- Run simulation ---------------------------------#
  # Compute
  thermo	   1
  thermo_style     custom step pe atoms

  run 		   1
WARNING: No fixes defined, atoms won't move (../verlet.cpp:55)
Neighbor list info ...
  update every 1 steps, delay 0 steps, check yes
  max neighbors/atom: 2000, page size: 100000
  master list distance cutoff = 6.8
  ghost atom cutoff = 6.8
  binsize = 3.4, bins = 12 12 12
  1 neighbor lists, perpetual/occasional/extra = 1 0 0
  (1) pair eam, perpetual
      attributes: half, newton on
      pair build: half/bin/atomonly/newton
      stencil: half/bin/3d/newton
      bin: standard
Per MPI rank memory allocation (min/avg/max) = 3.373 | 3.373 | 3.373 Mbytes
Step PotEng Atoms 
       0   -209.82779     1024 
       1   -209.82779     1024 
Loop time of 0.00249982 on 1 procs for 1 steps with 1024 atoms

Performance: 34.563 ns/day, 0.694 hours/ns, 400.029 timesteps/s
0.0% CPU use with 1 MPI tasks x 1 OpenMP threads

MPI task timing breakdown:
Section |  min time  |  avg time  |  max time  |%varavg| %total
---------------------------------------------------------------
Pair    | 0          | 0          | 0          |   0.0 |  0.00
Neigh   | 0          | 0          | 0          |   0.0 |  0.00
Comm    | 0          | 0          | 0          |   0.0 |  0.00
Output  | 0.0024998  | 0.0024998  | 0.0024998  |   0.0 |100.00
Modify  | 0          | 0          | 0          |   0.0 |  0.00
Other   |            | 0          |            |       |  0.00

Nlocal:    1024 ave 1024 max 1024 min
Histogram: 1 0 0 0 0 0 0 0 0 0
Nghost:    1307 ave 1307 max 1307 min
Histogram: 1 0 0 0 0 0 0 0 0 0
Neighs:    7168 ave 7168 max 7168 min
Histogram: 1 0 0 0 0 0 0 0 0 0

Total # of neighbors = 7168
Ave neighs/atom = 7
Neighbor list builds = 0
Dangerous builds = 0

  variable	   atoms equal "atoms"
  variable	   pe equal "pe"
  variable	   ce equal "v_pe/v_atoms"
  # Output
  print 	  "$a ${ce}" append Ni_FCC.dat
4.99 -0.204909947904662
#------------------------------------------------------------------------------#

#----------------------------- Loop procedure ---------------------------------#
  # Looping
  clear
OMP_NUM_THREADS environment is not set. Defaulting to 1 thread. (../comm.cpp:87)
  using 1 OpenMP thread(s) per MPI task
  next 		   i
  jump 		   in.txt
# This script runs a simulation loop to generate cohesive energy values for a range of lattice distances.

#--------------------------- Simulation variables -----------------------------#
  variable 	   i loop 600
  variable 	   a equal 2+0.005*$i
  variable 	   a equal 2+0.005*599
#------------------------------------------------------------------------------#

#---------------------------- Atomic setup ------------------------------------#
  units 	   metal
  dimension	   3
  boundary	   p p p

  # Create atoms.
  lattice          bcc ${a}
  lattice          bcc 4.995
Lattice spacing in x,y,z = 4.995 4.995 4.995
  region           sim_box block 0 8 0 8 0 8
  create_box       1 sim_box
Created orthogonal box = (0 0 0) to (39.96 39.96 39.96)
  1 by 1 by 1 MPI processor grid
  create_atoms     1 box
Created 1024 atoms
  Time spent = 0 secs

  # Define interatomic potential.
  pair_style       eam
  pair_coeff       * * Ni_u3.eam
Reading potential file Ni_u3.eam with DATE: 2007-06-11
  neigh_modify     delay 0
#------------------------------------------------------------------------------#

#----------------------------- Run simulation ---------------------------------#
  # Compute
  thermo	   1
  thermo_style     custom step pe atoms

  run 		   1
WARNING: No fixes defined, atoms won't move (../verlet.cpp:55)
Neighbor list info ...
  update every 1 steps, delay 0 steps, check yes
  max neighbors/atom: 2000, page size: 100000
  master list distance cutoff = 6.8
  ghost atom cutoff = 6.8
  binsize = 3.4, bins = 12 12 12
  1 neighbor lists, perpetual/occasional/extra = 1 0 0
  (1) pair eam, perpetual
      attributes: half, newton on
      pair build: half/bin/atomonly/newton
      stencil: half/bin/3d/newton
      bin: standard
Per MPI rank memory allocation (min/avg/max) = 3.373 | 3.373 | 3.373 Mbytes
Step PotEng Atoms 
       0   -206.29601     1024 
       1   -206.29601     1024 
Loop time of 0 on 1 procs for 1 steps with 1024 atoms

Performance: inf ns/day, 0.000 hours/ns, inf timesteps/s
0.0% CPU use with 1 MPI tasks x 1 OpenMP threads

MPI task timing breakdown:
Section |  min time  |  avg time  |  max time  |%varavg| %total
---------------------------------------------------------------
Pair    | 0          | 0          | 0          |   0.0 |  0.00
Neigh   | 0          | 0          | 0          |   0.0 |  0.00
Comm    | 0          | 0          | 0          |   0.0 |  0.00
Output  | 0          | 0          | 0          |   0.0 |  0.00
Modify  | 0          | 0          | 0          |   0.0 |  0.00
Other   |            | 0          |            |       |  0.00

Nlocal:    1024 ave 1024 max 1024 min
Histogram: 1 0 0 0 0 0 0 0 0 0
Nghost:    1307 ave 1307 max 1307 min
Histogram: 1 0 0 0 0 0 0 0 0 0
Neighs:    7168 ave 7168 max 7168 min
Histogram: 1 0 0 0 0 0 0 0 0 0

Total # of neighbors = 7168
Ave neighs/atom = 7
Neighbor list builds = 0
Dangerous builds = 0

  variable	   atoms equal "atoms"
  variable	   pe equal "pe"
  variable	   ce equal "v_pe/v_atoms"
  # Output
  print 	  "$a ${ce}" append Ni_FCC.dat
4.995 -0.201460948174512
#------------------------------------------------------------------------------#

#----------------------------- Loop procedure ---------------------------------#
  # Looping
  clear
OMP_NUM_THREADS environment is not set. Defaulting to 1 thread. (../comm.cpp:87)
  using 1 OpenMP thread(s) per MPI task
  next 		   i
  jump 		   in.txt
# This script runs a simulation loop to generate cohesive energy values for a range of lattice distances.

#--------------------------- Simulation variables -----------------------------#
  variable 	   i loop 600
  variable 	   a equal 2+0.005*$i
  variable 	   a equal 2+0.005*600
#------------------------------------------------------------------------------#

#---------------------------- Atomic setup ------------------------------------#
  units 	   metal
  dimension	   3
  boundary	   p p p

  # Create atoms.
  lattice          bcc ${a}
  lattice          bcc 5
Lattice spacing in x,y,z = 5 5 5
  region           sim_box block 0 8 0 8 0 8
  create_box       1 sim_box
Created orthogonal box = (0 0 0) to (40 40 40)
  1 by 1 by 1 MPI processor grid
  create_atoms     1 box
Created 1024 atoms
  Time spent = 0 secs

  # Define interatomic potential.
  pair_style       eam
  pair_coeff       * * Ni_u3.eam
Reading potential file Ni_u3.eam with DATE: 2007-06-11
  neigh_modify     delay 0
#------------------------------------------------------------------------------#

#----------------------------- Run simulation ---------------------------------#
  # Compute
  thermo	   1
  thermo_style     custom step pe atoms

  run 		   1
WARNING: No fixes defined, atoms won't move (../verlet.cpp:55)
Neighbor list info ...
  update every 1 steps, delay 0 steps, check yes
  max neighbors/atom: 2000, page size: 100000
  master list distance cutoff = 6.8
  ghost atom cutoff = 6.8
  binsize = 3.4, bins = 12 12 12
  1 neighbor lists, perpetual/occasional/extra = 1 0 0
  (1) pair eam, perpetual
      attributes: half, newton on
      pair build: half/bin/atomonly/newton
      stencil: half/bin/3d/newton
      bin: standard
Per MPI rank memory allocation (min/avg/max) = 3.373 | 3.373 | 3.373 Mbytes
Step PotEng Atoms 
       0   -202.80586     1024 
       1   -202.80586     1024 
Loop time of 0.00250006 on 1 procs for 1 steps with 1024 atoms

Performance: 34.559 ns/day, 0.694 hours/ns, 399.991 timesteps/s
0.0% CPU use with 1 MPI tasks x 1 OpenMP threads

MPI task timing breakdown:
Section |  min time  |  avg time  |  max time  |%varavg| %total
---------------------------------------------------------------
Pair    | 0          | 0          | 0          |   0.0 |  0.00
Neigh   | 0          | 0          | 0          |   0.0 |  0.00
Comm    | 0          | 0          | 0          |   0.0 |  0.00
Output  | 0.0025001  | 0.0025001  | 0.0025001  |   0.0 |100.00
Modify  | 0          | 0          | 0          |   0.0 |  0.00
Other   |            | 0          |            |       |  0.00

Nlocal:    1024 ave 1024 max 1024 min
Histogram: 1 0 0 0 0 0 0 0 0 0
Nghost:    1307 ave 1307 max 1307 min
Histogram: 1 0 0 0 0 0 0 0 0 0
Neighs:    7168 ave 7168 max 7168 min
Histogram: 1 0 0 0 0 0 0 0 0 0

Total # of neighbors = 7168
Ave neighs/atom = 7
Neighbor list builds = 0
Dangerous builds = 0

  variable	   atoms equal "atoms"
  variable	   pe equal "pe"
  variable	   ce equal "v_pe/v_atoms"
  # Output
  print 	  "$a ${ce}" append Ni_FCC.dat
5 -0.198052601677631
#------------------------------------------------------------------------------#

#----------------------------- Loop procedure ---------------------------------#
  # Looping
  clear
OMP_NUM_THREADS environment is not set. Defaulting to 1 thread. (../comm.cpp:87)
  using 1 OpenMP thread(s) per MPI task
  next 		   i
  jump 		   in.txt
#------------------------------------------------------------------------------#
Total wall time: 0:00:37
